 Gaussian 09, Revision B.01,
 Gaussian 09:  EM64L-G09RevB.01 12-Aug-2010

 ----------------------------------------
 # opt b3lyp/6-311+g(d) geom=connectivity
 ----------------------------------------

 -------------------
 Title Card Required
 -------------------
 Symbolic Z-matrix:
 Charge =  0 Multiplicity = 1

 SCF Done:  E(RB3LYP) =  -1387.64711400     A.U. after   16 cycles
 SCF Done:  E(RB3LYP) =  -1387.64752411     A.U. after   14 cycles
 SCF Done:  E(RB3LYP) =  -1387.64526472     A.U. after   17 cycles
 SCF Done:  E(RB3LYP) =  -1387.64770765     A.U. after   17 cycles
 SCF Done:  E(RB3LYP) =  -1387.64790415     A.U. after   14 cycles
 SCF Done:  E(RB3LYP) =  -1387.64797883     A.U. after   14 cycles
 SCF Done:  E(RB3LYP) =  -1387.64800163     A.U. after   13 cycles
 SCF Done:  E(RB3LYP) =  -1387.64801161     A.U. after   12 cycles
 SCF Done:  E(RB3LYP) =  -1387.64802316     A.U. after   12 cycles
 SCF Done:  E(RB3LYP) =  -1387.64802606     A.U. after   12 cycles
 SCF Done:  E(RB3LYP) =  -1387.64802637     A.U. after   12 cycles
 SCF Done:  E(RB3LYP) =  -1387.64802644     A.U. after   11 cycles
 SCF Done:  E(RB3LYP) =  -1387.64802633     A.U. after   10 cycles
 SCF Done:  E(RB3LYP) =  -1387.64802624     A.U. after    9 cycles
 SCF Done:  E(RB3LYP) =  -1387.64802634     A.U. after    9 cycles
 Optimization completed.
    -- Stationary point found.

                         Standard orientation:
 ---------------------------------------------------------------------
 Center     Atomic      Atomic             Coordinates (Angstroms)
 Number     Number       Type             X           Y           Z
 ---------------------------------------------------------------------
      1          6           0       -2.567763    0.438404   -2.637889
      2          6           0       -3.204764    1.062468   -1.644239
      3          6           0       -2.550104    1.172831   -0.288982
      4          6           0       -1.587736    0.005606    0.103362
      5          6           0       -1.036961   -0.866260   -1.064381
      6          6           0       -1.212384   -0.188562   -2.458511
      7          6           0       -0.475678    0.708546    0.954489
      8          6           0        0.829827    0.891549    0.200453
      9          6           0        1.368752   -0.062453   -0.600764
     10          6           0        0.489397   -1.180482   -0.974546
     11          6           0        2.765528    0.083282   -1.159648
     12          8           0        3.108528    1.146096   -1.638478
     13          6           0        3.704168   -1.116032   -1.077396
     14          6           0        3.914392   -1.550991    0.397110
     15          6           0        5.012250   -0.856247   -1.827191
     16          8           0        0.899056   -2.253632   -1.392037
     17          6           0       -0.883468    2.179852    1.166497
     18          6           0        0.470938    2.905621    1.315673
     19          8           0        1.390199    2.056608    0.504493
     20          6           0       -1.723411    2.468226   -0.089200
     21          8           0       -0.185933    0.004923    2.146148
     22          6           0       -1.886530   -2.150335   -0.987733
     23          6           0       -2.399994   -2.250350    0.448472
     24          8           0       -2.292713   -0.891643    0.979520
     25          6           0       -1.738323   -3.213641    1.419944
     26          6           0       -2.425906   -3.299430    2.761427
     27          6           0       -0.661730   -3.944666    1.129396
     28          6           0        0.984568    2.894930    2.754483
     29          6           0        0.549577    4.302189    0.713374
     30          1           0       -1.486750    2.285821    2.070739
     31          1           0       -3.326263    1.160496    0.484711
     32          6           0       -4.552994    1.709326   -1.808391
     33          1           0       -3.022814    0.382132   -3.624302
     34          1           0       -0.429038    0.565032   -2.604484
     35          1           0       -1.034038   -0.948033   -3.224863
     36          1           0        3.168989   -1.942698   -1.556557
     37          1           0        4.499853   -2.477445    0.386196
     38          1           0        2.944419   -1.815159    0.829169
     39          1           0        5.550698    0.005849   -1.430414
     40          1           0        4.826530   -0.655520   -2.884627
     41          1           0        5.665797   -1.731169   -1.759065
     42          1           0       -2.357242    3.351387    0.014267
     43          1           0       -1.083972    2.633945   -0.961536
     44          1           0       -0.919353   -0.623732    2.264477
     45          1           0       -1.308833   -3.013014   -1.311221
     46          1           0       -2.741340   -2.053243   -1.659059
     47          1           0       -3.473718   -2.470335    0.450066
     48          1           0       -2.509834   -2.317685    3.238439
     49          1           0       -3.450540   -3.674504    2.650756
     50          1           0       -1.894837   -3.964834    3.444248
     51          1           0       -0.236686   -4.621146    1.865273
     52          1           0       -0.154031   -3.897766    0.174282
     53          1           0        0.378250    3.562534    3.373566
     54          1           0        0.940804    1.893864    3.182937
     55          1           0        2.017613    3.248680    2.786479
     56          1           0        1.561317    4.700162    0.814866
     57          1           0        0.292920    4.306675   -0.346223
     58          1           0       -0.133773    4.975247    1.238721
     59          1           0       -5.289783    1.266018   -1.128272
     60          1           0       -4.516838    2.779398   -1.572522
     61          1           0       -4.929171    1.606355   -2.828572
     62          6           0        4.607606   -0.519149    1.292209
     63          1           0        4.049747    0.420797    1.339860
     64          1           0        5.616415   -0.284111    0.942985
     65          1           0        4.696861   -0.898215    2.314409
 ---------------------------------------------------------------------

 The electronic state is 1-A.
 Alpha  occ. eigenvalues --  -19.17630 -19.14738 -19.13279 -19.11125 -19.10339
 Alpha  occ. eigenvalues --  -10.26662 -10.26393 -10.25747 -10.25635 -10.25437
 Alpha  occ. eigenvalues --  -10.25312 -10.23934 -10.20949 -10.19588 -10.19516
 Alpha  occ. eigenvalues --  -10.19063 -10.18890 -10.18837 -10.18754 -10.18158
 Alpha  occ. eigenvalues --  -10.17721 -10.17687 -10.17626 -10.17536 -10.17167
 Alpha  occ. eigenvalues --  -10.16880 -10.16563 -10.16548 -10.16066 -10.14751
 Alpha  occ. eigenvalues --  -10.14351  -1.10302  -1.06888  -1.04740  -1.03693
 Alpha  occ. eigenvalues --   -1.03310  -0.87999  -0.84714  -0.83010  -0.82233
 Alpha  occ. eigenvalues --   -0.80865  -0.80089  -0.77667  -0.75018  -0.73972
 Alpha  occ. eigenvalues --   -0.72915  -0.71858  -0.70762  -0.69677  -0.68981
 Alpha  occ. eigenvalues --   -0.66389  -0.64864  -0.64544  -0.62496  -0.61592
 Alpha  occ. eigenvalues --   -0.60062  -0.59466  -0.57652  -0.55273  -0.54551
 Alpha  occ. eigenvalues --   -0.53605  -0.52984  -0.51742  -0.50878  -0.50140
 Alpha  occ. eigenvalues --   -0.48479  -0.48370  -0.47912  -0.47531  -0.46829
 Alpha  occ. eigenvalues --   -0.46000  -0.45542  -0.45223  -0.44862  -0.44076
 Alpha  occ. eigenvalues --   -0.43956  -0.43209  -0.43176  -0.42612  -0.42086
 Alpha  occ. eigenvalues --   -0.41649  -0.41454  -0.41098  -0.40824  -0.40677
 Alpha  occ. eigenvalues --   -0.39947  -0.39780  -0.39272  -0.38992  -0.38321
 Alpha  occ. eigenvalues --   -0.38180  -0.38109  -0.37791  -0.37570  -0.37252
 Alpha  occ. eigenvalues --   -0.36783  -0.36272  -0.36224  -0.35845  -0.35271
 Alpha  occ. eigenvalues --   -0.34685  -0.34404  -0.34122  -0.33772  -0.33417
 Alpha  occ. eigenvalues --   -0.32412  -0.32109  -0.31664  -0.28699  -0.28515
 Alpha  occ. eigenvalues --   -0.26559  -0.25800  -0.25401  -0.24636  -0.23725
 Alpha virt. eigenvalues --   -0.05921  -0.02286  -0.01529  -0.01024  -0.00514
 Alpha virt. eigenvalues --    0.00273   0.00340   0.00706   0.01846   0.01901
 Alpha virt. eigenvalues --    0.02063   0.02268   0.02788   0.03358   0.03641

 Mulliken atomic charges:
              1
     1  C   -0.646376
     2  C    0.948984
     3  C    0.003641
     4  C   -0.093553
     5  C    1.256872
     6  C   -1.233863
     7  C   -1.285838
     8  C    0.364183
     9  C    0.808035
    10  C   -0.971780
    11  C   -0.815905
    12  O   -0.149613
    13  C    0.554823
    14  C   -0.366611
    15  C   -0.873279
    16  O   -0.208451
    17  C   -0.358521
    18  C    0.864560
    19  O    0.207860
    20  C   -1.238096
    21  O   -0.002405
    22  C   -0.500608
    23  C    0.052657
    24  O   -0.030072
    25  C    0.920211
    26  C   -1.059707
    27  C   -1.050585
    28  C   -0.888961
    29  C   -0.623527
    30  H    0.237597
    31  H    0.260104
    32  C   -1.183256
    33  H    0.208136
    34  H    0.269379
    35  H    0.262374
    36  H    0.270640
    37  H    0.221705
    38  H    0.262412
    39  H    0.269424
    40  H    0.260846
    41  H    0.237141
    42  H    0.259209
    43  H    0.294765
    44  H    0.246924
    45  H    0.271531
    46  H    0.256798
    47  H    0.213834
    48  H    0.252190
    49  H    0.262240
    50  H    0.251124
    51  H    0.216524
    52  H    0.247912
    53  H    0.248911
    54  H    0.310449
    55  H    0.264059
    56  H    0.273585
    57  H    0.271917
    58  H    0.262002
    59  H    0.261724
    60  H    0.246187
    61  H    0.251521
    62  C   -1.088608
    63  H    0.273209
    64  H    0.250441
    65  H    0.240972
 Sum of Mulliken atomic charges =   0.00000

 Dipole moment (field-independent basis, Debye):
    X=             -5.1617    Y=              1.4277    Z=              1.7406  Tot=              5.6312
 Quadrupole moment (field-independent basis, Debye-Ang):
   XX=           -189.0684   YY=           -181.9376   ZZ=           -188.5133
   XY=             -6.1993   XZ=              7.3292   YZ=              2.9220

 Normal termination of Gaussian 09 at Tue Apr 13 19:54:13 2021.
