 Gaussian 09, Revision B.01,
 Gaussian 09:  EM64L-G09RevB.01 12-Aug-2010

 ----------------------------------------
 # opt b3lyp/6-311+g(d) geom=connectivity
 ----------------------------------------

 -------------------
 Title Card Required
 -------------------
 Symbolic Z-matrix:
 Charge =  0 Multiplicity = 1

 SCF Done:  E(RB3LYP) =  -1387.64904724     A.U. after   17 cycles
 SCF Done:  E(RB3LYP) =  -1387.64946082     A.U. after   14 cycles
 SCF Done:  E(RB3LYP) =  -1387.64771405     A.U. after   15 cycles
 SCF Done:  E(RB3LYP) =  -1387.64963166     A.U. after   14 cycles
 SCF Done:  E(RB3LYP) =  -1387.64967071     A.U. after   12 cycles
 SCF Done:  E(RB3LYP) =  -1387.64967038     A.U. after   12 cycles
 SCF Done:  E(RB3LYP) =  -1387.64967706     A.U. after   11 cycles
 SCF Done:  E(RB3LYP) =  -1387.64967854     A.U. after   12 cycles
 SCF Done:  E(RB3LYP) =  -1387.64967891     A.U. after   12 cycles
 SCF Done:  E(RB3LYP) =  -1387.64967891     A.U. after   12 cycles
 SCF Done:  E(RB3LYP) =  -1387.64967903     A.U. after   10 cycles
 SCF Done:  E(RB3LYP) =  -1387.64967905     A.U. after    9 cycles
 Optimization completed.
    -- Stationary point found.

                         Standard orientation:
 ---------------------------------------------------------------------
 Center     Atomic      Atomic             Coordinates (Angstroms)
 Number     Number       Type             X           Y           Z
 ---------------------------------------------------------------------
      1          6           0        1.725020    0.692815    3.087666
      2          6           0        1.638002    1.821873    2.381399
      3          6           0        1.695638    1.811222    0.869810
      4          6           0        1.571539    0.413285    0.188662
      5          6           0        1.283914   -0.827112    1.077032
      6          6           0        1.904432   -0.670889    2.485754
      7          6           0        0.507835    0.621489   -0.924009
      8          6           0       -0.904787    0.371009   -0.445971
      9          6           0       -1.255871   -0.509652    0.511396
     10          6           0       -0.206743   -1.228163    1.244486
     11          6           0       -2.697562   -0.678792    0.952809
     12          8           0       -3.031669   -0.318215    2.058651
     13          6           0       -3.661088   -1.319087   -0.042271
     14          6           0       -5.124441   -1.081881    0.357926
     15          6           0       -3.303036   -2.813917   -0.185675
     16          8           0       -0.476379   -2.149077    1.997254
     17          6           0        0.402043    2.134507   -1.208863
     18          6           0       -1.028785    2.284027   -1.776872
     19          8           0       -1.764163    1.198026   -1.061815
     20          6           0        0.641470    2.729246    0.191035
     21          8           0        0.724472   -0.201267   -2.056854
     22          6           0        2.016080   -1.950668    0.301126
     23          6           0        3.257204   -1.232078   -0.241869
     24          8           0        2.827921    0.123224   -0.476272
     25          6           0        3.884180   -1.842890   -1.474521
     26          6           0        4.241234   -3.301719   -1.348101
     27          6           0        4.149575   -1.130250   -2.570885
     28          6           0       -1.111826    2.003840   -3.276538
     29          6           0       -1.748538    3.582917   -1.433368
     30          1           0        1.156849    2.464832   -1.926291
     31          1           0        2.687936    2.172852    0.571546
     32          6           0        1.545940    3.171789    3.045140
     33          1           0        1.708634    0.746472    4.174076
     34          1           0        2.977673   -0.898407    2.438769
     35          1           0        1.467474   -1.438677    3.127047
     36          1           0       -3.471455   -0.839121   -1.011803
     37          1           0       -5.328176   -1.601418    1.299571
     38          1           0       -5.257464   -0.017656    0.576784
     39          1           0       -3.909796   -3.281632   -0.963778
     40          1           0       -3.476030   -3.348020    0.752313
     41          1           0       -2.254841   -2.953572   -0.458820
     42          1           0        0.965517    3.770810    0.155144
     43          1           0       -0.283646    2.703297    0.771846
     44          1           0        1.685315   -0.257900   -2.183702
     45          1           0        1.399938   -2.318343   -0.522809
     46          1           0        2.256281   -2.792743    0.951588
     47          1           0        4.033210   -1.202238    0.537319
     48          1           0        4.876555   -3.479596   -0.472709
     49          1           0        3.351684   -3.927329   -1.221859
     50          1           0        4.779616   -3.655034   -2.228924
     51          1           0        4.616346   -1.587393   -3.437516
     52          1           0        3.938240   -0.068933   -2.630521
     53          1           0       -2.157341    1.957471   -3.590809
     54          1           0       -0.628696    2.811433   -3.834365
     55          1           0       -0.623995    1.065119   -3.533666
     56          1           0       -1.225793    4.430233   -1.885782
     57          1           0       -2.765798    3.565724   -1.830548
     58          1           0       -1.810759    3.750990   -0.358478
     59          1           0        1.591110    3.080622    4.132094
     60          1           0        2.368316    3.825633    2.729153
     61          1           0        0.616902    3.694827    2.795458
     62          6           0       -6.137768   -1.508864   -0.707667
     63          1           0       -7.154751   -1.249652   -0.399692
     64          1           0       -5.949534   -1.009751   -1.664466
     65          1           0       -6.122945   -2.586771   -0.889681
 ---------------------------------------------------------------------

 The electronic state is 1-A.
 Alpha  occ. eigenvalues --  -19.17670 -19.14614 -19.13938 -19.10985 -19.10547
 Alpha  occ. eigenvalues --  -10.26316 -10.26307 -10.26026 -10.25857 -10.25376
 Alpha  occ. eigenvalues --  -10.25255 -10.24327 -10.20655 -10.19864 -10.19847
 Alpha  occ. eigenvalues --  -10.19387 -10.18734 -10.18661 -10.18401 -10.18232
 Alpha  occ. eigenvalues --  -10.17971 -10.17851 -10.17695 -10.17528 -10.17120
 Alpha  occ. eigenvalues --  -10.17073 -10.17022 -10.16845 -10.15751 -10.15673
 Alpha  occ. eigenvalues --  -10.15263  -1.10117  -1.07016  -1.04789  -1.03850
 Alpha  occ. eigenvalues --   -1.03795  -0.87715  -0.84725  -0.83410  -0.82412
 Alpha  occ. eigenvalues --   -0.81151  -0.80529  -0.77741  -0.75131  -0.74126
 Alpha  occ. eigenvalues --   -0.72993  -0.72180  -0.70842  -0.70340  -0.68809
 Alpha  occ. eigenvalues --   -0.65854  -0.65571  -0.64089  -0.63054  -0.61539
 Alpha  occ. eigenvalues --   -0.60331  -0.59494  -0.57875  -0.55952  -0.54849
 Alpha  occ. eigenvalues --   -0.53740  -0.53334  -0.51601  -0.51297  -0.50190
 Alpha  occ. eigenvalues --   -0.49109  -0.48576  -0.47678  -0.47374  -0.46768
 Alpha  occ. eigenvalues --   -0.46088  -0.45826  -0.45400  -0.44688  -0.44308
 Alpha  occ. eigenvalues --   -0.44106  -0.43828  -0.43010  -0.42505  -0.42146
 Alpha  occ. eigenvalues --   -0.41703  -0.41543  -0.41340  -0.40968  -0.40564
 Alpha  occ. eigenvalues --   -0.39958  -0.39894  -0.39565  -0.39228  -0.38874
 Alpha  occ. eigenvalues --   -0.38469  -0.38321  -0.38121  -0.37980  -0.37583
 Alpha  occ. eigenvalues --   -0.37162  -0.37016  -0.36085  -0.35567  -0.35443
 Alpha  occ. eigenvalues --   -0.34970  -0.34648  -0.34637  -0.33837  -0.32950
 Alpha  occ. eigenvalues --   -0.32445  -0.32306  -0.32056  -0.29515  -0.27772
 Alpha  occ. eigenvalues --   -0.26897  -0.25980  -0.25285  -0.24359  -0.24196
 Alpha virt. eigenvalues --   -0.05725  -0.02644  -0.01530  -0.01155  -0.00139
 Alpha virt. eigenvalues --    0.00207   0.00700   0.01042   0.01563   0.01814
 Alpha virt. eigenvalues --    0.02058   0.02487   0.03012   0.03248   0.03562

 Mulliken atomic charges:
              1
     1  C   -0.574053
     2  C    0.836018
     3  C   -0.342183
     4  C   -0.416394
     5  C    1.324858
     6  C   -0.634559
     7  C   -1.222378
     8  C   -0.079105
     9  C    0.157238
    10  C   -0.449509
    11  C    0.141591
    12  O   -0.159289
    13  C    0.086330
    14  C   -0.108076
    15  C   -1.135747
    16  O   -0.152985
    17  C    0.196294
    18  C    0.485280
    19  O    0.137646
    20  C   -1.311752
    21  O    0.012739
    22  C   -0.861743
    23  C   -0.404994
    24  O   -0.043661
    25  C    1.108803
    26  C   -1.146152
    27  C   -0.769159
    28  C   -0.714781
    29  C   -0.655928
    30  H    0.226570
    31  H    0.276810
    32  C   -1.066677
    33  H    0.205067
    34  H    0.242897
    35  H    0.277703
    36  H    0.246247
    37  H    0.254896
    38  H    0.249060
    39  H    0.258873
    40  H    0.278318
    41  H    0.275131
    42  H    0.269279
    43  H    0.281208
    44  H    0.276847
    45  H    0.295339
    46  H    0.281917
    47  H    0.249535
    48  H    0.260757
    49  H    0.268154
    50  H    0.259347
    51  H    0.223414
    52  H    0.243375
    53  H    0.261439
    54  H    0.248127
    55  H    0.307073
    56  H    0.262978
    57  H    0.267349
    58  H    0.262605
    59  H    0.257667
    60  H    0.255229
    61  H    0.256909
    62  C   -1.040223
    63  H    0.247850
    64  H    0.235333
    65  H    0.239249
 Sum of Mulliken atomic charges =   0.00000

 Dipole moment (field-independent basis, Debye):
    X=              3.6555    Y=              2.7487    Z=             -3.6312  Tot=              5.8398
 Quadrupole moment (field-independent basis, Debye-Ang):
   XX=           -187.8490   YY=           -176.8810   ZZ=           -194.5186
   XY=             -6.5224   XZ=             10.0362   YZ=              1.6511

 Normal termination of Gaussian 09 at Tue Apr 13 17:14:11 2021.
