 Gaussian 09, Revision B.01,
 Gaussian 09:  EM64L-G09RevB.01 12-Aug-2010

 ----------------------------------------
 # opt b3lyp/6-311+g(d) geom=connectivity
 ----------------------------------------

 -------------------
 Title Card Required
 -------------------
 Symbolic Z-matrix:
 Charge =  0 Multiplicity = 1

 SCF Done:  E(RB3LYP) =  -1387.65001240     A.U. after   17 cycles
 SCF Done:  E(RB3LYP) =  -1387.65057884     A.U. after   14 cycles
 SCF Done:  E(RB3LYP) =  -1387.65052960     A.U. after   13 cycles
 SCF Done:  E(RB3LYP) =  -1387.65047603     A.U. after   14 cycles
 SCF Done:  E(RB3LYP) =  -1387.65075927     A.U. after   14 cycles
 SCF Done:  E(RB3LYP) =  -1387.65080973     A.U. after   13 cycles
 SCF Done:  E(RB3LYP) =  -1387.65084684     A.U. after   12 cycles
 SCF Done:  E(RB3LYP) =  -1387.65085090     A.U. after   12 cycles
 SCF Done:  E(RB3LYP) =  -1387.65085169     A.U. after   11 cycles
 SCF Done:  E(RB3LYP) =  -1387.65085164     A.U. after   11 cycles
 SCF Done:  E(RB3LYP) =  -1387.65085191     A.U. after   10 cycles
 Optimization completed.
    -- Stationary point found.

                         Standard orientation:
 ---------------------------------------------------------------------
 Center     Atomic      Atomic             Coordinates (Angstroms)
 Number     Number       Type             X           Y           Z
 ---------------------------------------------------------------------
      1          6           0        0.470112   -0.987709    3.088797
      2          6           0        0.613342    0.339010    3.042443
      3          6           0        1.238059    1.019530    1.844065
      4          6           0        1.409906    0.136975    0.568936
      5          6           0        0.855623   -1.311192    0.581527
      6          6           0        0.917295   -1.922344    2.001190
      7          6           0        0.816261    0.997028   -0.577285
      8          6           0       -0.671776    0.781235   -0.777279
      9          6           0       -1.319499   -0.392423   -0.567375
     10          6           0       -0.579509   -1.509460    0.023298
     11          6           0       -2.779978   -0.545481   -0.929599
     12          8           0       -3.175144   -0.169938   -2.013271
     13          6           0       -3.739130   -1.075639    0.138001
     14          6           0       -4.973046   -1.755341   -0.472977
     15          6           0       -4.141629    0.118302    1.031263
     16          8           0       -1.067309   -2.629182    0.098926
     17          6           0        0.793473    2.466566   -0.111967
     18          6           0       -0.341205    3.080372   -0.963601
     19          8           0       -1.264312    1.918909   -1.131981
     20          6           0        0.501103    2.311405    1.392215
     21          8           0        1.441484    0.758942   -1.824173
     22          6           0        1.851043   -2.043754   -0.351984
     23          6           0        3.183847   -1.355478   -0.032860
     24          8           0        2.829970    0.000723    0.304739
     25          6           0        4.227369   -1.407147   -1.126149
     26          6           0        4.551963   -2.790373   -1.628691
     27          6           0        4.846961   -0.314200   -1.575359
     28          6           0        0.115801    3.521124   -2.353243
     29          6           0       -1.157730    4.179614   -0.295334
     30          1           0        1.749365    2.963366   -0.292393
     31          1           0        2.261175    1.303905    2.120591
     32          6           0        0.239359    1.223215    4.204343
     33          1           0        0.051143   -1.443670    3.983479
     34          1           0        1.945335   -2.243747    2.214545
     35          1           0        0.317223   -2.834178    1.998005
     36          1           0       -3.199071   -1.797900    0.754283
     37          1           0       -5.678597   -1.963140    0.340726
     38          1           0       -5.472413   -1.049264   -1.143562
     39          1           0       -3.271184    0.606904    1.478584
     40          1           0       -4.783630   -0.224485    1.847279
     41          1           0       -4.693911    0.867745    0.457551
     42          1           0        0.807613    3.183929    1.971898
     43          1           0       -0.572524    2.186840    1.553142
     44          1           0        2.385323    0.619249   -1.644839
     45          1           0        1.583620   -1.889183   -1.399725
     46          1           0        1.864709   -3.116773   -0.156627
     47          1           0        3.627254   -1.812427    0.864268
     48          1           0        4.835029   -3.455550   -0.804680
     49          1           0        3.692193   -3.252862   -2.124083
     50          1           0        5.379010   -2.768865   -2.340024
     51          1           0        5.604400   -0.377079   -2.350067
     52          1           0        4.641640    0.669353   -1.169219
     53          1           0       -0.751688    3.776402   -2.965872
     54          1           0        0.748214    4.410198   -2.272916
     55          1           0        0.679971    2.736309   -2.853707
     56          1           0       -0.523546    5.049814   -0.104837
     57          1           0       -1.972015    4.494255   -0.951408
     58          1           0       -1.593653    3.858856    0.650679
     59          1           0       -0.136505    0.635288    5.044012
     60          1           0        1.105087    1.796508    4.558091
     61          1           0       -0.530767    1.954874    3.939175
     62          6           0       -4.667860   -3.054727   -1.222762
     63          1           0       -5.589719   -3.517214   -1.587892
     64          1           0       -4.024676   -2.877517   -2.087702
     65          1           0       -4.162846   -3.780233   -0.578348
 ---------------------------------------------------------------------

 The electronic state is 1-A.
 Alpha  occ. eigenvalues --  -19.17800 -19.14723 -19.13921 -19.10685 -19.10518
 Alpha  occ. eigenvalues --  -10.26791 -10.26501 -10.25951 -10.25561 -10.25458
 Alpha  occ. eigenvalues --  -10.25401 -10.24410 -10.20830 -10.19923 -10.19863
 Alpha  occ. eigenvalues --  -10.19710 -10.19051 -10.18778 -10.18703 -10.18426
 Alpha  occ. eigenvalues --  -10.18062 -10.17950 -10.17847 -10.17562 -10.17378
 Alpha  occ. eigenvalues --  -10.17126 -10.16891 -10.16767 -10.16087 -10.15243
 Alpha  occ. eigenvalues --  -10.13855  -1.10478  -1.07131  -1.04518  -1.03893
 Alpha  occ. eigenvalues --   -1.03812  -0.87933  -0.84750  -0.83455  -0.82537
 Alpha  occ. eigenvalues --   -0.81339  -0.80133  -0.77758  -0.75289  -0.74314
 Alpha  occ. eigenvalues --   -0.72930  -0.72097  -0.70777  -0.70369  -0.69062
 Alpha  occ. eigenvalues --   -0.66309  -0.64702  -0.64257  -0.62597  -0.61758
 Alpha  occ. eigenvalues --   -0.60556  -0.59701  -0.58028  -0.55796  -0.54916
 Alpha  occ. eigenvalues --   -0.53873  -0.53144  -0.51958  -0.51427  -0.50291
 Alpha  occ. eigenvalues --   -0.49316  -0.48830  -0.47947  -0.47445  -0.46898
 Alpha  occ. eigenvalues --   -0.46013  -0.45627  -0.44934  -0.44697  -0.44238
 Alpha  occ. eigenvalues --   -0.43732  -0.43260  -0.42728  -0.42497  -0.42385
 Alpha  occ. eigenvalues --   -0.42060  -0.41793  -0.41579  -0.40899  -0.40647
 Alpha  occ. eigenvalues --   -0.40259  -0.40055  -0.39640  -0.39202  -0.38770
 Alpha  occ. eigenvalues --   -0.38612  -0.38352  -0.38173  -0.38083  -0.37710
 Alpha  occ. eigenvalues --   -0.37129  -0.36749  -0.35925  -0.35924  -0.35382
 Alpha  occ. eigenvalues --   -0.35018  -0.34737  -0.33961  -0.33185  -0.33004
 Alpha  occ. eigenvalues --   -0.32491  -0.32213  -0.31687  -0.29517  -0.27818
 Alpha  occ. eigenvalues --   -0.26930  -0.26127  -0.25452  -0.24713  -0.23945
 Alpha virt. eigenvalues --   -0.06186  -0.02942  -0.01594  -0.01349  -0.00272
 Alpha virt. eigenvalues --   -0.00106   0.00248   0.01149   0.01491   0.01748
 Alpha virt. eigenvalues --    0.02144   0.02582   0.03057   0.03231   0.03417

 Mulliken atomic charges:
              1
     1  C   -0.279424
     2  C    0.627183
     3  C   -0.076328
     4  C   -0.397991
     5  C    0.818493
     6  C   -0.761494
     7  C   -1.192545
     8  C    0.314164
     9  C    1.158901
    10  C   -1.075941
    11  C   -0.400263
    12  O   -0.179722
    13  C    0.334083
    14  C   -0.362335
    15  C   -1.083328
    16  O   -0.169234
    17  C    0.016190
    18  C    0.621743
    19  O    0.173451
    20  C   -1.360715
    21  O   -0.011651
    22  C   -0.790711
    23  C   -0.357704
    24  O   -0.058472
    25  C    1.026094
    26  C   -1.137512
    27  C   -0.750718
    28  C   -0.718640
    29  C   -0.722202
    30  H    0.236232
    31  H    0.273016
    32  C   -1.082913
    33  H    0.202100
    34  H    0.245508
    35  H    0.274933
    36  H    0.244323
    37  H    0.216853
    38  H    0.256658
    39  H    0.262240
    40  H    0.259061
    41  H    0.276663
    42  H    0.272290
    43  H    0.276143
    44  H    0.287905
    45  H    0.306216
    46  H    0.284264
    47  H    0.246222
    48  H    0.260850
    49  H    0.270023
    50  H    0.259961
    51  H    0.223730
    52  H    0.242890
    53  H    0.266890
    54  H    0.247459
    55  H    0.313150
    56  H    0.264560
    57  H    0.271862
    58  H    0.258388
    59  H    0.257167
    60  H    0.259752
    61  H    0.257731
    62  C   -0.934219
    63  H    0.237376
    64  H    0.257164
    65  H    0.244184
 Sum of Mulliken atomic charges =   0.00000

 Dipole moment (field-independent basis, Debye):
    X=              4.3600    Y=              2.9755    Z=              3.7174  Tot=              6.4561
 Quadrupole moment (field-independent basis, Debye-Ang):
   XX=           -190.6954   YY=           -177.8676   ZZ=           -192.4061
   XY=             -7.2240   XZ=            -12.0160   YZ=              0.3582

 Normal termination of Gaussian 09 at Tue Apr 13 20:06:45 2021.
