 Gaussian 09, Revision B.01,
 Gaussian 09:  EM64L-G09RevB.01 12-Aug-2010

 ----------------------------------------
 # opt b3lyp/6-311+g(d) geom=connectivity
 ----------------------------------------

 -------------------
 Title Card Required
 -------------------
 Symbolic Z-matrix:
 Charge =  0 Multiplicity = 1

 SCF Done:  E(RB3LYP) =  -1387.64885833     A.U. after   16 cycles
 SCF Done:  E(RB3LYP) =  -1387.64954883     A.U. after   14 cycles
 SCF Done:  E(RB3LYP) =  -1387.64947331     A.U. after   14 cycles
 SCF Done:  E(RB3LYP) =  -1387.64990199     A.U. after   13 cycles
 SCF Done:  E(RB3LYP) =  -1387.64994409     A.U. after   14 cycles
 SCF Done:  E(RB3LYP) =  -1387.65011475     A.U. after   14 cycles
 SCF Done:  E(RB3LYP) =  -1387.65026257     A.U. after   14 cycles
 SCF Done:  E(RB3LYP) =  -1387.65021511     A.U. after   14 cycles
 SCF Done:  E(RB3LYP) =  -1387.65030785     A.U. after   15 cycles
 SCF Done:  E(RB3LYP) =  -1387.65032312     A.U. after   14 cycles
 SCF Done:  E(RB3LYP) =  -1387.65031253     A.U. after   13 cycles
 SCF Done:  E(RB3LYP) =  -1387.65031857     A.U. after   11 cycles
 SCF Done:  E(RB3LYP) =  -1387.65032008     A.U. after   10 cycles
 SCF Done:  E(RB3LYP) =  -1387.65031909     A.U. after   11 cycles
 SCF Done:  E(RB3LYP) =  -1387.65031922     A.U. after   10 cycles
 Optimization completed.
    -- Stationary point found.

                         Standard orientation:
 ---------------------------------------------------------------------
 Center     Atomic      Atomic             Coordinates (Angstroms)
 Number     Number       Type             X           Y           Z
 ---------------------------------------------------------------------
      1          6           0        1.687083    0.776742    3.079831
      2          6           0        1.857665    1.812298    2.255341
      3          6           0        1.934571    1.622130    0.757222
      4          6           0        1.531513    0.212647    0.221059
      5          6           0        0.963133   -0.829722    1.223058
      6          6           0        1.573751   -0.652139    2.633333
      7          6           0        0.566535    0.516508   -0.957123
      8          6           0       -0.882398    0.611189   -0.532513
      9          6           0       -1.438625   -0.092616    0.477555
     10          6           0       -0.582618   -0.885632    1.359347
     11          6           0       -2.913910    0.026783    0.812390
     12          8           0       -3.374874    1.096646    1.145326
     13          6           0       -3.764021   -1.230317    0.660415
     14          6           0       -4.040768   -1.444560   -0.850830
     15          6           0       -5.040553   -1.143231    1.499369
     16          8           0       -1.058321   -1.582302    2.246404
     17          6           0        0.784421    1.978451   -1.396072
     18          6           0       -0.568035    2.348020   -2.051504
     19          8           0       -1.531257    1.500368   -1.286568
     20          6           0        1.104351    2.657472   -0.052446
     21          8           0        0.646506   -0.446834   -1.993484
     22          6           0        1.448053   -2.165733    0.601085
     23          6           0        2.826723   -1.805967    0.061096
     24          8           0        2.705999   -0.413262   -0.355827
     25          6           0        3.405610   -2.610089   -1.083448
     26          6           0        4.742413   -2.123618   -1.583688
     27          6           0        2.809289   -3.695338   -1.579519
     28          6           0       -0.651890    1.943554   -3.522104
     29          6           0       -1.027315    3.788174   -1.860303
     30          1           0        1.611858    2.068042   -2.103956
     31          1           0        2.984776    1.738461    0.459796
     32          6           0        2.050519    3.216334    2.768079
     33          1           0        1.668948    0.953700    4.153231
     34          1           0        2.570782   -1.110663    2.660355
     35          1           0        0.965139   -1.228799    3.332201
     36          1           0       -3.152614   -2.067754    1.012781
     37          1           0       -4.683050   -0.632303   -1.210604
     38          1           0       -3.099835   -1.358518   -1.404875
     39          1           0       -5.608474   -2.074598    1.443533
     40          1           0       -5.682785   -0.327032    1.160546
     41          1           0       -4.804313   -0.960603    2.550048
     42          1           0        1.634945    3.603407   -0.174494
     43          1           0        0.179509    2.878081    0.486357
     44          1           0        1.579216   -0.712941   -2.040628
     45          1           0        0.781405   -2.467441   -0.208653
     46          1           0        1.475609   -2.965653    1.342684
     47          1           0        3.562379   -1.825846    0.877376
     48          1           0        4.682933   -1.087958   -1.929449
     49          1           0        5.488466   -2.140150   -0.780638
     50          1           0        5.113565   -2.742226   -2.402953
     51          1           0        3.268533   -4.271566   -2.376919
     52          1           0        1.856893   -4.061282   -1.214187
     53          1           0       -1.675590    2.064191   -3.884241
     54          1           0       -0.003478    2.587071   -4.123878
     55          1           0       -0.345774    0.908790   -3.666986
     56          1           0       -0.329468    4.470661   -2.353707
     57          1           0       -2.012830    3.931374   -2.308486
     58          1           0       -1.096028    4.063643   -0.808409
     59          1           0        2.061224    3.240194    3.859507
     60          1           0        2.998479    3.639920    2.413826
     61          1           0        1.259335    3.893235    2.429558
     62          6           0       -4.679737   -2.797022   -1.177570
     63          1           0       -4.798704   -2.916199   -2.258471
     64          1           0       -4.059975   -3.625904   -0.820735
     65          1           0       -5.670070   -2.906171   -0.728688
 ---------------------------------------------------------------------

 The electronic state is 1-A.
 Alpha  occ. eigenvalues --  -19.17498 -19.14632 -19.13954 -19.10882 -19.10619
 Alpha  occ. eigenvalues --  -10.26450 -10.26448 -10.25803 -10.25740 -10.25298
 Alpha  occ. eigenvalues --  -10.25259 -10.24296 -10.20741 -10.19867 -10.19743
 Alpha  occ. eigenvalues --  -10.19433 -10.18661 -10.18594 -10.18359 -10.18308
 Alpha  occ. eigenvalues --  -10.17701 -10.17667 -10.17557 -10.17481 -10.17078
 Alpha  occ. eigenvalues --  -10.16995 -10.16925 -10.16873 -10.16620 -10.15509
 Alpha  occ. eigenvalues --  -10.14544  -1.10166  -1.06868  -1.04586  -1.03931
 Alpha  occ. eigenvalues --   -1.03678  -0.87665  -0.84580  -0.83360  -0.82403
 Alpha  occ. eigenvalues --   -0.81153  -0.80471  -0.77621  -0.75157  -0.74062
 Alpha  occ. eigenvalues --   -0.72663  -0.72199  -0.70660  -0.70325  -0.68703
 Alpha  occ. eigenvalues --   -0.66495  -0.65312  -0.64255  -0.62458  -0.61472
 Alpha  occ. eigenvalues --   -0.60428  -0.59235  -0.57923  -0.55812  -0.54603
 Alpha  occ. eigenvalues --   -0.53739  -0.53182  -0.51724  -0.51295  -0.50218
 Alpha  occ. eigenvalues --   -0.49231  -0.48682  -0.47588  -0.47133  -0.46725
 Alpha  occ. eigenvalues --   -0.46223  -0.45681  -0.45350  -0.44564  -0.44223
 Alpha  occ. eigenvalues --   -0.44147  -0.43248  -0.42953  -0.42542  -0.42242
 Alpha  occ. eigenvalues --   -0.42133  -0.41642  -0.41290  -0.40875  -0.40203
 Alpha  occ. eigenvalues --   -0.39895  -0.39268  -0.38982  -0.38933  -0.38706
 Alpha  occ. eigenvalues --   -0.38444  -0.38353  -0.38204  -0.37903  -0.37694
 Alpha  occ. eigenvalues --   -0.37303  -0.36459  -0.35953  -0.35739  -0.35302
 Alpha  occ. eigenvalues --   -0.35015  -0.34584  -0.34455  -0.33808  -0.33025
 Alpha  occ. eigenvalues --   -0.32564  -0.32237  -0.31950  -0.29330  -0.27768
 Alpha  occ. eigenvalues --   -0.27441  -0.26060  -0.25238  -0.24471  -0.24065
 Alpha virt. eigenvalues --   -0.05840  -0.02287  -0.01934  -0.01117  -0.00106
 Alpha virt. eigenvalues --    0.00278   0.00599   0.00952   0.01591   0.01899
 Alpha virt. eigenvalues --    0.02091   0.02284   0.02777   0.03349   0.03414

 Mulliken atomic charges:
              1
     1  C   -0.187816
     2  C    0.641770
     3  C   -0.287293
     4  C   -0.889696
     5  C    1.241083
     6  C   -0.747858
     7  C   -1.046981
     8  C    0.369071
     9  C    0.721894
    10  C   -0.523073
    11  C   -0.315099
    12  O   -0.167519
    13  C    0.309024
    14  C   -0.196617
    15  C   -1.104202
    16  O   -0.197153
    17  C   -0.140287
    18  C    0.579700
    19  O    0.172907
    20  C   -1.239473
    21  O   -0.016823
    22  C   -0.524309
    23  C   -0.507351
    24  O    0.046678
    25  C    0.889215
    26  C   -1.005982
    27  C   -1.012777
    28  C   -0.792014
    29  C   -0.646588
    30  H    0.234167
    31  H    0.274925
    32  C   -1.073809
    33  H    0.200645
    34  H    0.238097
    35  H    0.283120
    36  H    0.267245
    37  H    0.250558
    38  H    0.265825
    39  H    0.237595
    40  H    0.270994
    41  H    0.259581
    42  H    0.266808
    43  H    0.288730
    44  H    0.288658
    45  H    0.252482
    46  H    0.275725
    47  H    0.233438
    48  H    0.268634
    49  H    0.263994
    50  H    0.254798
    51  H    0.229916
    52  H    0.237111
    53  H    0.262114
    54  H    0.249407
    55  H    0.306177
    56  H    0.261375
    57  H    0.268743
    58  H    0.266241
    59  H    0.257303
    60  H    0.252721
    61  H    0.259622
    62  C   -1.111558
    63  H    0.244180
    64  H    0.246304
    65  H    0.245705
 Sum of Mulliken atomic charges =   0.00000

 Dipole moment (field-independent basis, Debye):
    X=              4.9749    Y=              0.9090    Z=             -2.9818  Tot=              5.8709
 Quadrupole moment (field-independent basis, Debye-Ang):
   XX=           -190.8254   YY=           -179.2179   ZZ=           -189.4592
   XY=              3.7131   XZ=              6.6457   YZ=             -1.9454

 Normal termination of Gaussian 09 at Wed Apr 14 00:40:59 2021.
