 Gaussian 09, Revision B.01,
 Gaussian 09:  EM64L-G09RevB.01 12-Aug-2010

 --------------------------------------
 # opt b3lyp/6-31g(d) geom=connectivity
 --------------------------------------

 -------------------
 Title Card Required
 -------------------
 Symbolic Z-matrix:
 Charge =  0 Multiplicity = 1

 SCF Done:  E(RB3LYP) =  -1718.35993351     A.U. after   15 cycles
 SCF Done:  E(RB3LYP) =  -1718.37182360     A.U. after   13 cycles
 SCF Done:  E(RB3LYP) =  -1718.37418702     A.U. after   13 cycles
 SCF Done:  E(RB3LYP) =  -1718.37421676     A.U. after   13 cycles
 SCF Done:  E(RB3LYP) =  -1718.37519025     A.U. after   12 cycles
 SCF Done:  E(RB3LYP) =  -1718.37523982     A.U. after   12 cycles
 SCF Done:  E(RB3LYP) =  -1718.37558907     A.U. after   12 cycles
 SCF Done:  E(RB3LYP) =  -1718.37561367     A.U. after   10 cycles
 SCF Done:  E(RB3LYP) =  -1718.37560808     A.U. after   10 cycles
 SCF Done:  E(RB3LYP) =  -1718.37563004     A.U. after   10 cycles
 SCF Done:  E(RB3LYP) =  -1718.37563710     A.U. after   10 cycles
 SCF Done:  E(RB3LYP) =  -1718.37563933     A.U. after   10 cycles
 SCF Done:  E(RB3LYP) =  -1718.37564257     A.U. after    8 cycles
 SCF Done:  E(RB3LYP) =  -1718.37564480     A.U. after    8 cycles
 SCF Done:  E(RB3LYP) =  -1718.37564633     A.U. after   10 cycles
 SCF Done:  E(RB3LYP) =  -1718.37564643     A.U. after    7 cycles
 SCF Done:  E(RB3LYP) =  -1718.37564651     A.U. after    7 cycles
 SCF Done:  E(RB3LYP) =  -1718.37564638     A.U. after    6 cycles
 Optimization completed.
    -- Stationary point found.

                         Standard orientation:
 ---------------------------------------------------------------------
 Center     Atomic      Atomic             Coordinates (Angstroms)
 Number     Number       Type             X           Y           Z
 ---------------------------------------------------------------------
      1          6           0       -4.434689    0.353483    1.210103
      2          6           0       -3.395269    0.056143    2.107723
      3          6           0       -2.209858   -0.575628    1.713785
      4          6           0       -2.029749   -0.937616    0.380108
      5          6           0       -3.063233   -0.659994   -0.556228
      6          6           0       -4.257764   -0.012214   -0.132028
      7          6           0       -0.828166   -1.595892   -0.112817
      8          6           0       -0.762562   -1.944513   -1.416060
      9          8           0       -1.767393   -1.678826   -2.309748
     10          6           0       -2.922354   -1.032842   -1.942901
     11          6           0        0.322838   -1.894028    0.825076
     12          6           0        1.637926   -2.251399    0.095672
     13          6           0        1.335385   -3.259285   -1.040892
     14          6           0        0.389857   -2.638974   -2.073498
     15          6           0       -5.697269    1.037520    1.674298
     16          8           0       -5.243805    0.264544   -1.000834
     17          8           0       -3.492506    0.372697    3.426743
     18          8           0       -3.749643   -0.833035   -2.831148
     19          8           0        2.270621   -1.160977   -0.553852
     20          6           0        2.496495    0.092714    0.126538
     21          6           0        3.900787    0.565735   -0.258503
     22          6           0        4.210959    1.906065    0.416024
     23          6           0        3.123118    2.909966    0.188883
     24          6           0        1.864794    2.556830   -0.112378
     25          6           0        1.435820    1.117086   -0.315203
     26          8           0        4.931402   -0.315900    0.138597
     27          8           0        5.440718    2.435563   -0.058206
     28          6           0        0.863601    3.648623   -0.293664
     29          8           0       -0.341765    3.156905   -0.673092
     30          8           0        1.073299    4.834850   -0.134721
     31          6           0       -1.365583    4.140040   -0.887114
     32          6           0        2.644836   -2.936523    1.039580
     33          8           0        2.071497   -3.857992    1.842170
     34          8           0        3.843062   -2.745766    1.037365
     35          1           0       -1.463674   -0.774414    2.473060
     36          1           0        0.056792   -2.722248    1.490925
     37          1           0        0.498234   -1.033912    1.480453
     38          1           0        0.887878   -4.156942   -0.600875
     39          1           0        2.275502   -3.550184   -1.520061
     40          1           0        0.932054   -1.922097   -2.702125
     41          1           0        0.002027   -3.414428   -2.744637
     42          1           0       -5.493964    2.027050    2.108880
     43          1           0       -6.377324    1.184858    0.834479
     44          1           0       -6.233688    0.443817    2.428700
     45          1           0       -4.948945   -0.065900   -1.891397
     46          1           0       -4.345547    0.803036    3.594339
     47          1           0        2.470597   -0.060929    1.214238
     48          1           0        3.919844    0.720255   -1.350442
     49          1           0        4.288279    1.709225    1.502208
     50          1           0        3.377424    3.960678    0.297847
     51          1           0        0.487195    0.934504    0.198766
     52          1           0        1.227876    0.944699   -1.379313
     53          1           0        4.591358   -1.230736    0.127611
     54          1           0        6.083478    1.711503    0.033905
     55          1           0       -2.255494    3.578126   -1.172381
     56          1           0       -1.545873    4.711758    0.027246
     57          1           0       -1.073661    4.830427   -1.683019
     58          1           0        2.796226   -4.276435    2.346389
 ---------------------------------------------------------------------

 The electronic state is 1-A.
 Alpha  occ. eigenvalues --  -19.23172 -19.22473 -19.20076 -19.19104 -19.17785
 Alpha  occ. eigenvalues --  -19.17722 -19.17582 -19.14704 -19.13701 -19.13278
 Alpha  occ. eigenvalues --  -19.12903 -10.35183 -10.33229 -10.31097 -10.29001
 Alpha  occ. eigenvalues --  -10.27564 -10.27509 -10.27423 -10.25508 -10.23842
 Alpha  occ. eigenvalues --  -10.23794 -10.23289 -10.23017 -10.22154 -10.21901
 Alpha  occ. eigenvalues --  -10.21799 -10.21534 -10.21167 -10.20832 -10.20688
 Alpha  occ. eigenvalues --  -10.20323 -10.19928 -10.19831 -10.19740  -1.14241
 Alpha  occ. eigenvalues --   -1.12901  -1.09772  -1.08345  -1.07144  -1.06457
 Alpha  occ. eigenvalues --   -1.04578  -1.03302  -1.02410  -1.00765  -0.99897
 Alpha  occ. eigenvalues --   -0.88324  -0.86376  -0.84117  -0.81398  -0.79370
 Alpha  occ. eigenvalues --   -0.77688  -0.76745  -0.75609  -0.74351  -0.71428
 Alpha  occ. eigenvalues --   -0.71353  -0.69670  -0.66939  -0.66502  -0.64831
 Alpha  occ. eigenvalues --   -0.63322  -0.62665  -0.61926  -0.59273  -0.58067
 Alpha  occ. eigenvalues --   -0.57740  -0.55712  -0.54799  -0.53938  -0.53340
 Alpha  occ. eigenvalues --   -0.52867  -0.51582  -0.51152  -0.50528  -0.50147
 Alpha  occ. eigenvalues --   -0.49589  -0.48544  -0.47984  -0.47795  -0.47437
 Alpha  occ. eigenvalues --   -0.46813  -0.46663  -0.46252  -0.45720  -0.45174
 Alpha  occ. eigenvalues --   -0.45092  -0.44257  -0.43707  -0.43325  -0.42814
 Alpha  occ. eigenvalues --   -0.42574  -0.42325  -0.41823  -0.41652  -0.41007
 Alpha  occ. eigenvalues --   -0.40403  -0.40286  -0.40007  -0.39713  -0.39198
 Alpha  occ. eigenvalues --   -0.38839  -0.38369  -0.38057  -0.37742  -0.37485
 Alpha  occ. eigenvalues --   -0.36269  -0.35705  -0.35589  -0.35497  -0.35002
 Alpha  occ. eigenvalues --   -0.34364  -0.34071  -0.33032  -0.32433  -0.30443
 Alpha  occ. eigenvalues --   -0.29969  -0.29265  -0.28830  -0.27492  -0.26961
 Alpha  occ. eigenvalues --   -0.26718  -0.25978  -0.24865  -0.23980  -0.22306
 Alpha virt. eigenvalues --   -0.05093  -0.03782  -0.03422  -0.02660   0.03322
 Alpha virt. eigenvalues --    0.04627   0.05224   0.05682   0.07355   0.07476
 Alpha virt. eigenvalues --    0.07820   0.09648   0.10816   0.11145   0.11364

 Mulliken atomic charges:
              1
     1  C    0.109374
     2  C    0.301357
     3  C   -0.274661
     4  C    0.144955
     5  C   -0.059929
     6  C    0.237064
     7  C    0.053624
     8  C    0.288932
     9  O   -0.498433
    10  C    0.601099
    11  C   -0.376695
    12  C    0.237422
    13  C   -0.302376
    14  C   -0.339584
    15  C   -0.585953
    16  O   -0.659567
    17  O   -0.637404
    18  O   -0.536387
    19  O   -0.538724
    20  C    0.090046
    21  C    0.127988
    22  C    0.110409
    23  C   -0.147718
    24  C    0.054624
    25  C   -0.352606
    26  O   -0.692537
    27  O   -0.643034
    28  C    0.595733
    29  O   -0.467165
    30  O   -0.491446
    31  C   -0.217777
    32  C    0.598584
    33  O   -0.566821
    34  O   -0.475801
    35  H    0.140857
    36  H    0.192131
    37  H    0.167235
    38  H    0.166894
    39  H    0.168573
    40  H    0.194028
    41  H    0.175957
    42  H    0.161713
    43  H    0.209980
    44  H    0.162879
    45  H    0.449459
    46  H    0.422965
    47  H    0.132244
    48  H    0.129914
    49  H    0.134477
    50  H    0.181699
    51  H    0.168895
    52  H    0.174375
    53  H    0.437264
    54  H    0.411131
    55  H    0.166912
    56  H    0.169321
    57  H    0.172568
    58  H    0.421935
 Sum of Mulliken atomic charges =   0.00000

 Dipole moment (field-independent basis, Debye):
    X=             -2.6735    Y=             -4.9127    Z=              3.9600  Tot=              6.8530
 Quadrupole moment (field-independent basis, Debye-Ang):
   XX=           -207.9044   YY=           -193.4978   ZZ=           -191.7759
   XY=            -26.4128   XZ=            -12.1710   YZ=             -3.3469

 Normal termination of Gaussian 09 at Tue Feb  2 11:41:53 2021.
