 Gaussian 09, Revision B.01,
 Gaussian 09:  EM64L-G09RevB.01 12-Aug-2010

 --------------------------------------
 # opt b3lyp/6-31g(d) geom=connectivity
 --------------------------------------

 -------------------
 Title Card Required
 -------------------
 Symbolic Z-matrix:
 Charge =  0 Multiplicity = 1

 SCF Done:  E(RB3LYP) =  -1718.35870228     A.U. after   15 cycles
 SCF Done:  E(RB3LYP) =  -1718.37085042     A.U. after   13 cycles
 SCF Done:  E(RB3LYP) =  -1718.37270924     A.U. after   13 cycles
 SCF Done:  E(RB3LYP) =  -1718.37142628     A.U. after   13 cycles
 SCF Done:  E(RB3LYP) =  -1718.37323879     A.U. after   12 cycles
 SCF Done:  E(RB3LYP) =  -1718.37366405     A.U. after   12 cycles
 SCF Done:  E(RB3LYP) =  -1718.37362536     A.U. after   12 cycles
 SCF Done:  E(RB3LYP) =  -1718.37376729     A.U. after   11 cycles
 SCF Done:  E(RB3LYP) =  -1718.37378058     A.U. after   11 cycles
 SCF Done:  E(RB3LYP) =  -1718.37379209     A.U. after   10 cycles
 SCF Done:  E(RB3LYP) =  -1718.37379415     A.U. after    8 cycles
 SCF Done:  E(RB3LYP) =  -1718.37379376     A.U. after   10 cycles
 SCF Done:  E(RB3LYP) =  -1718.37379540     A.U. after    7 cycles
 SCF Done:  E(RB3LYP) =  -1718.37379579     A.U. after    8 cycles
 SCF Done:  E(RB3LYP) =  -1718.37379603     A.U. after    7 cycles
 SCF Done:  E(RB3LYP) =  -1718.37379626     A.U. after    7 cycles
 SCF Done:  E(RB3LYP) =  -1718.37379633     A.U. after    7 cycles
 SCF Done:  E(RB3LYP) =  -1718.37379638     A.U. after    6 cycles
 Optimization completed.
    -- Stationary point found.

                         Standard orientation:
 ---------------------------------------------------------------------
 Center     Atomic      Atomic             Coordinates (Angstroms)
 Number     Number       Type             X           Y           Z
 ---------------------------------------------------------------------
      1          6           0        5.802633   -0.548626   -1.244481
      2          6           0        4.868165   -1.590618   -1.371415
      3          6           0        3.616891   -1.568591   -0.744735
      4          6           0        3.260082   -0.478154    0.045802
      5          6           0        4.181696    0.593423    0.202466
      6          6           0        5.447401    0.548986   -0.447767
      7          6           0        1.980760   -0.377206    0.733833
      8          6           0        1.736511    0.705379    1.504752
      9          8           0        2.631396    1.736106    1.646170
     10          6           0        3.853800    1.735576    1.020815
     11          6           0        0.954577   -1.483483    0.606448
     12          6           0       -0.452313   -1.080777    1.094744
     13          6           0       -0.348768   -0.328494    2.430432
     14          6           0        0.480400    0.951958    2.284100
     15          6           0        7.140193   -0.608488   -1.940653
     16          8           0        6.331335    1.551423   -0.316763
     17          8           0        5.140292   -2.690510   -2.124176
     18          8           0        4.574601    2.713600    1.215616
     19          8           0       -0.982520   -0.276666    0.028805
     20          6           0       -2.260232    0.363561    0.169447
     21          6           0       -2.210085    1.556452   -0.785981
     22          6           0       -3.464229    2.412280   -0.636949
     23          6           0       -4.702381    1.564268   -0.705492
     24          6           0       -4.696907    0.239478   -0.488637
     25          6           0       -3.439723   -0.552444   -0.187382
     26          8           0       -1.095567    2.402165   -0.530137
     27          8           0       -3.538235    3.405806   -1.650609
     28          6           0       -5.944025   -0.573324   -0.557598
     29          8           0       -7.050833    0.158165   -0.815026
     30          8           0       -5.965402   -1.780320   -0.401526
     31          6           0       -8.272828   -0.589963   -0.904772
     32          6           0       -1.297255   -2.357117    1.274889
     33          8           0       -1.379622   -3.073245    0.132133
     34          8           0       -1.825634   -2.702400    2.308498
     35          1           0        2.956615   -2.413737   -0.894405
     36          1           0        1.292880   -2.369027    1.163198
     37          1           0        0.856654   -1.793824   -0.438107
     38          1           0        0.124425   -1.003826    3.151255
     39          1           0       -1.338403   -0.107811    2.838677
     40          1           0       -0.097202    1.741426    1.784609
     41          1           0        0.748562    1.345573    3.271577
     42          1           0        7.718422    0.290873   -1.725270
     43          1           0        7.738995   -1.469529   -1.609684
     44          1           0        7.032922   -0.674311   -3.033126
     45          1           0        5.913114    2.232787    0.274837
     46          1           0        6.026304   -2.606223   -2.509931
     47          1           0       -2.378455    0.746435    1.191268
     48          1           0       -2.173424    1.179133   -1.819886
     49          1           0       -3.419130    2.897463    0.355943
     50          1           0       -5.627723    2.082991   -0.935269
     51          1           0       -3.650382   -1.259378    0.621103
     52          1           0       -3.166412   -1.162480   -1.057736
     53          1           0       -0.307206    1.839596   -0.611032
     54          1           0       -2.691292    3.881608   -1.616474
     55          1           0       -9.050311    0.146133   -1.111110
     56          1           0       -8.215366   -1.325194   -1.711946
     57          1           0       -8.474998   -1.110592    0.035129
     58          1           0       -1.943260   -3.845525    0.331307
 ---------------------------------------------------------------------

 The electronic state is 1-A.
 Alpha  occ. eigenvalues --  -19.22059 -19.21356 -19.19664 -19.19564 -19.17731
 Alpha  occ. eigenvalues --  -19.17353 -19.16233 -19.15912 -19.14913 -19.14299
 Alpha  occ. eigenvalues --  -19.13879 -10.33539 -10.32823 -10.31854 -10.27951
 Alpha  occ. eigenvalues --  -10.27108 -10.27073 -10.26985 -10.25510 -10.25066
 Alpha  occ. eigenvalues --  -10.24544 -10.24364 -10.22551 -10.21615 -10.21460
 Alpha  occ. eigenvalues --  -10.21393 -10.20991 -10.20894 -10.20747 -10.20628
 Alpha  occ. eigenvalues --  -10.20407 -10.20001 -10.19944 -10.19248  -1.12472
 Alpha  occ. eigenvalues --   -1.12420  -1.10470  -1.07925  -1.06718  -1.06135
 Alpha  occ. eigenvalues --   -1.03802  -1.03332  -1.02875  -1.01728  -1.01562
 Alpha  occ. eigenvalues --   -0.87891  -0.86058  -0.84585  -0.80826  -0.79200
 Alpha  occ. eigenvalues --   -0.76993  -0.76373  -0.76180  -0.74663  -0.72211
 Alpha  occ. eigenvalues --   -0.70886  -0.68830  -0.66314  -0.66036  -0.64094
 Alpha  occ. eigenvalues --   -0.64048  -0.63247  -0.61485  -0.58790  -0.57763
 Alpha  occ. eigenvalues --   -0.57110  -0.55738  -0.55176  -0.54332  -0.53466
 Alpha  occ. eigenvalues --   -0.52807  -0.51795  -0.50906  -0.50181  -0.49283
 Alpha  occ. eigenvalues --   -0.49074  -0.48708  -0.48455  -0.47947  -0.47218
 Alpha  occ. eigenvalues --   -0.46893  -0.46407  -0.45715  -0.45388  -0.44932
 Alpha  occ. eigenvalues --   -0.44555  -0.43861  -0.43671  -0.43256  -0.42539
 Alpha  occ. eigenvalues --   -0.42376  -0.41961  -0.41699  -0.41312  -0.41135
 Alpha  occ. eigenvalues --   -0.40746  -0.40387  -0.39904  -0.39861  -0.39363
 Alpha  occ. eigenvalues --   -0.38773  -0.38036  -0.37756  -0.37497  -0.37185
 Alpha  occ. eigenvalues --   -0.36236  -0.35701  -0.35466  -0.35154  -0.34743
 Alpha  occ. eigenvalues --   -0.33938  -0.33510  -0.33403  -0.33373  -0.30529
 Alpha  occ. eigenvalues --   -0.30474  -0.28714  -0.28538  -0.28457  -0.27642
 Alpha  occ. eigenvalues --   -0.27319  -0.26475  -0.26080  -0.23562  -0.21855
 Alpha virt. eigenvalues --   -0.04686  -0.04663  -0.02909  -0.01703   0.03826
 Alpha virt. eigenvalues --    0.05557   0.05606   0.06179   0.06424   0.07412
 Alpha virt. eigenvalues --    0.07887   0.09533   0.10381   0.10903   0.11045

 Mulliken atomic charges:
              1
     1  C    0.109947
     2  C    0.300433
     3  C   -0.273684
     4  C    0.141871
     5  C   -0.062297
     6  C    0.239387
     7  C    0.053578
     8  C    0.277189
     9  O   -0.497473
    10  C    0.598579
    11  C   -0.370240
    12  C    0.245797
    13  C   -0.303021
    14  C   -0.360493
    15  C   -0.585834
    16  O   -0.659613
    17  O   -0.637860
    18  O   -0.536932
    19  O   -0.551892
    20  C    0.127176
    21  C    0.093637
    22  C    0.108720
    23  C   -0.159136
    24  C    0.057898
    25  C   -0.365031
    26  O   -0.653499
    27  O   -0.638454
    28  C    0.604565
    29  O   -0.465328
    30  O   -0.493107
    31  C   -0.216846
    32  C    0.587019
    33  O   -0.566440
    34  O   -0.466085
    35  H    0.143682
    36  H    0.167044
    37  H    0.191719
    38  H    0.167173
    39  H    0.168102
    40  H    0.187917
    41  H    0.175872
    42  H    0.209742
    43  H    0.161596
    44  H    0.161651
    45  H    0.449294
    46  H    0.422247
    47  H    0.137637
    48  H    0.141093
    49  H    0.141694
    50  H    0.178944
    51  H    0.179129
    52  H    0.181726
    53  H    0.414151
    54  H    0.408834
    55  H    0.166521
    56  H    0.171302
    57  H    0.171516
    58  H    0.418883
 Sum of Mulliken atomic charges =   0.00000

 Dipole moment (field-independent basis, Debye):
    X=             -0.5478    Y=             -2.9694    Z=             -1.2048  Tot=              3.2510
 Quadrupole moment (field-independent basis, Debye-Ang):
   XX=           -176.0730   YY=           -203.1467   ZZ=           -194.2699
   XY=            -17.7909   XZ=            -11.6709   YZ=              4.5978

 Normal termination of Gaussian 09 at Tue Feb  2 11:33:28 2021.
