 Gaussian 09, Revision B.01,
 Gaussian 09:  EM64L-G09RevB.01 12-Aug-2010

 --------------------------------------
 # opt b3lyp/6-31g(d) geom=connectivity
 --------------------------------------

 -------------------
 Title Card Required
 -------------------
 Symbolic Z-matrix:
 Charge =  0 Multiplicity = 1

 SCF Done:  E(RB3LYP) =  -1718.35536053     A.U. after   15 cycles
 SCF Done:  E(RB3LYP) =  -1718.36769613     A.U. after   13 cycles
 SCF Done:  E(RB3LYP) =  -1718.36933383     A.U. after   13 cycles
 SCF Done:  E(RB3LYP) =  -1718.36891688     A.U. after   14 cycles
 SCF Done:  E(RB3LYP) =  -1718.36982696     A.U. after   13 cycles
 SCF Done:  E(RB3LYP) =  -1718.37005205     A.U. after   13 cycles
 SCF Done:  E(RB3LYP) =  -1718.37028462     A.U. after   13 cycles
 SCF Done:  E(RB3LYP) =  -1718.37040711     A.U. after   13 cycles
 SCF Done:  E(RB3LYP) =  -1718.37048873     A.U. after   12 cycles
 SCF Done:  E(RB3LYP) =  -1718.37053707     A.U. after   11 cycles
 SCF Done:  E(RB3LYP) =  -1718.37055522     A.U. after   12 cycles
 SCF Done:  E(RB3LYP) =  -1718.37057912     A.U. after   11 cycles
 SCF Done:  E(RB3LYP) =  -1718.37057967     A.U. after   10 cycles
 SCF Done:  E(RB3LYP) =  -1718.37058495     A.U. after    8 cycles
 SCF Done:  E(RB3LYP) =  -1718.37058416     A.U. after    8 cycles
 SCF Done:  E(RB3LYP) =  -1718.37058562     A.U. after    8 cycles
 SCF Done:  E(RB3LYP) =  -1718.37058584     A.U. after    7 cycles
 SCF Done:  E(RB3LYP) =  -1718.37058606     A.U. after    7 cycles
 SCF Done:  E(RB3LYP) =  -1718.37058612     A.U. after    7 cycles
 SCF Done:  E(RB3LYP) =  -1718.37058614     A.U. after    6 cycles
 Optimization completed.
    -- Stationary point found.

                         Standard orientation:
 ---------------------------------------------------------------------
 Center     Atomic      Atomic             Coordinates (Angstroms)
 Number     Number       Type             X           Y           Z
 ---------------------------------------------------------------------
      1          6           0        4.460798   -0.887370   -0.920770
      2          6           0        3.542091   -1.854092   -1.362584
      3          6           0        2.260408   -1.988222   -0.816956
      4          6           0        1.857760   -1.140790    0.212948
      5          6           0        2.766047   -0.161630    0.698262
      6          6           0        4.057619   -0.034117    0.115874
      7          6           0        0.538126   -1.202682    0.824645
      8          6           0        0.263376   -0.389304    1.866969
      9          8           0        1.153782    0.539773    2.340237
     10          6           0        2.383191    0.733772    1.760043
     11          6           0       -0.524226   -2.129933    0.277170
     12          6           0       -1.948249   -1.765187    0.749829
     13          6           0       -1.924448   -1.546899    2.280040
     14          6           0       -1.023436   -0.356729    2.633440
     15          6           0        5.828891   -0.765778   -1.545676
     16          8           0        4.924599    0.897164    0.546292
     17          8           0        3.860050   -2.721367   -2.362207
     18          8           0        3.066579    1.652322    2.215388
     19          8           0       -2.445297   -0.539121    0.226034
     20          6           0       -2.450560   -0.284925   -1.196099
     21          6           0       -3.773897    0.439555   -1.482560
     22          6           0       -3.871516    1.746892   -0.660647
     23          6           0       -2.555167    2.478099   -0.537427
     24          6           0       -1.377892    1.962494   -0.925193
     25          6           0       -1.273058    0.608952   -1.592851
     26          8           0       -3.778998    0.687762   -2.886435
     27          8           0       -4.403299    1.499049    0.642113
     28          6           0       -0.084672    2.659780   -0.673810
     29          8           0       -0.220595    3.846310   -0.044588
     30          8           0        0.998074    2.194884   -0.984576
     31          6           0        1.014196    4.505379    0.288521
     32          6           0       -2.889484   -2.948115    0.459165
     33          8           0       -4.116680   -2.565509    0.042950
     34          8           0       -2.588747   -4.108995    0.632374
     35          1           0        1.615473   -2.762470   -1.214177
     36          1           0       -0.336970   -3.169942    0.566808
     37          1           0       -0.492351   -2.117235   -0.818273
     38          1           0       -1.558461   -2.465476    2.750343
     39          1           0       -2.942537   -1.370555    2.643783
     40          1           0       -1.535663    0.591378    2.427043
     41          1           0       -0.798752   -0.360080    3.707167
     42          1           0        5.771059   -0.538994   -2.620158
     43          1           0        6.388397    0.042674   -1.073582
     44          1           0        6.419625   -1.685889   -1.427321
     45          1           0        4.461147    1.419203    1.253669
     46          1           0        4.761121   -2.539508   -2.671690
     47          1           0       -2.432544   -1.227644   -1.753979
     48          1           0       -4.610968   -0.204895   -1.186106
     49          1           0       -4.607324    2.400573   -1.149907
     50          1           0       -2.591481    3.437039   -0.029057
     51          1           0       -1.282232    0.724752   -2.683827
     52          1           0       -0.317528    0.150013   -1.335794
     53          1           0       -4.627754    1.098954   -3.111124
     54          1           0       -3.831539    0.804004    1.013616
     55          1           0        0.722430    5.425595    0.795638
     56          1           0        1.619137    3.876123    0.947072
     57          1           0        1.584998    4.729297   -0.616573
     58          1           0       -4.628421   -3.389991   -0.068218
 ---------------------------------------------------------------------

 The electronic state is 1-A.
 Alpha  occ. eigenvalues --  -19.21876 -19.21569 -19.19054 -19.18641 -19.17658
 Alpha  occ. eigenvalues --  -19.16709 -19.15934 -19.15917 -19.14129 -19.13818
 Alpha  occ. eigenvalues --  -19.13012 -10.33766 -10.32270 -10.30956 -10.28245
 Alpha  occ. eigenvalues --  -10.26635 -10.26355 -10.26316 -10.25295 -10.24358
 Alpha  occ. eigenvalues --  -10.24203 -10.23164 -10.21859 -10.21343 -10.21070
 Alpha  occ. eigenvalues --  -10.20996 -10.20814 -10.20470 -10.19994 -10.19781
 Alpha  occ. eigenvalues --  -10.19728 -10.19372 -10.18729 -10.18626  -1.12786
 Alpha  occ. eigenvalues --   -1.11973  -1.09538  -1.07291  -1.06071  -1.05951
 Alpha  occ. eigenvalues --   -1.03528  -1.03313  -1.02301  -1.01447  -1.00587
 Alpha  occ. eigenvalues --   -0.87346  -0.85630  -0.83281  -0.80417  -0.78526
 Alpha  occ. eigenvalues --   -0.76772  -0.75748  -0.75302  -0.73749  -0.71453
 Alpha  occ. eigenvalues --   -0.70373  -0.68955  -0.65967  -0.65466  -0.64270
 Alpha  occ. eigenvalues --   -0.63459  -0.62360  -0.60885  -0.59211  -0.57685
 Alpha  occ. eigenvalues --   -0.56706  -0.55748  -0.54583  -0.53778  -0.51873
 Alpha  occ. eigenvalues --   -0.51205  -0.50591  -0.50059  -0.49745  -0.49272
 Alpha  occ. eigenvalues --   -0.49046  -0.48242  -0.47866  -0.47207  -0.46808
 Alpha  occ. eigenvalues --   -0.46535  -0.46052  -0.45480  -0.45193  -0.44839
 Alpha  occ. eigenvalues --   -0.44177  -0.43628  -0.42952  -0.42732  -0.42238
 Alpha  occ. eigenvalues --   -0.41960  -0.41590  -0.41339  -0.41085  -0.40802
 Alpha  occ. eigenvalues --   -0.39957  -0.39475  -0.39243  -0.39081  -0.38764
 Alpha  occ. eigenvalues --   -0.38298  -0.37430  -0.37158  -0.37005  -0.36816
 Alpha  occ. eigenvalues --   -0.36096  -0.35272  -0.35113  -0.34667  -0.34341
 Alpha  occ. eigenvalues --   -0.33909  -0.33179  -0.33013  -0.32293  -0.30161
 Alpha  occ. eigenvalues --   -0.29576  -0.29513  -0.28006  -0.27421  -0.27040
 Alpha  occ. eigenvalues --   -0.26316  -0.25864  -0.25185  -0.22839  -0.21255
 Alpha virt. eigenvalues --   -0.04069  -0.03984  -0.02359  -0.01392   0.04382
 Alpha virt. eigenvalues --    0.04942   0.05685   0.06151   0.06693   0.07586
 Alpha virt. eigenvalues --    0.08371   0.09688   0.09884   0.10922   0.11783

 Mulliken atomic charges:
              1
     1  C    0.112542
     2  C    0.300991
     3  C   -0.272840
     4  C    0.145365
     5  C   -0.033912
     6  C    0.243586
     7  C    0.046291
     8  C    0.296283
     9  O   -0.506174
    10  C    0.613881
    11  C   -0.374551
    12  C    0.249073
    13  C   -0.306179
    14  C   -0.343153
    15  C   -0.585537
    16  O   -0.662001
    17  O   -0.639763
    18  O   -0.554032
    19  O   -0.553710
    20  C    0.101125
    21  C    0.083992
    22  C    0.078668
    23  C   -0.162344
    24  C    0.085662
    25  C   -0.344820
    26  O   -0.631798
    27  O   -0.640510
    28  C    0.593817
    29  O   -0.464575
    30  O   -0.498975
    31  C   -0.229434
    32  C    0.579036
    33  O   -0.560363
    34  O   -0.468925
    35  H    0.141209
    36  H    0.194961
    37  H    0.166923
    38  H    0.173781
    39  H    0.160933
    40  H    0.186676
    41  H    0.175271
    42  H    0.162018
    43  H    0.208293
    44  H    0.158995
    45  H    0.447867
    46  H    0.421345
    47  H    0.140411
    48  H    0.149106
    49  H    0.131011
    50  H    0.166444
    51  H    0.184710
    52  H    0.185302
    53  H    0.398931
    54  H    0.412833
    55  H    0.161681
    56  H    0.190641
    57  H    0.167992
    58  H    0.415947
 Sum of Mulliken atomic charges =   0.00000

 Dipole moment (field-independent basis, Debye):
    X=             -2.3547    Y=             -1.6763    Z=             -1.8740  Tot=              3.4448
 Quadrupole moment (field-independent basis, Debye-Ang):
   XX=           -176.0259   YY=           -193.0895   ZZ=           -191.2826
   XY=             -1.2378   XZ=             -4.0610   YZ=             -2.7795

 Normal termination of Gaussian 09 at Tue Feb  2 11:40:32 2021.
