 Gaussian 09, Revision B.01,
 Gaussian 09:  EM64L-G09RevB.01 12-Aug-2010

 --------------------------------------
 # opt b3lyp/6-31g(d) geom=connectivity
 --------------------------------------

 -------------------
 Title Card Required
 -------------------
 Symbolic Z-matrix:
 Charge =  0 Multiplicity = 1

 SCF Done:  E(RB3LYP) =  -1718.36096541     A.U. after   15 cycles
 SCF Done:  E(RB3LYP) =  -1718.37246673     A.U. after   13 cycles
 SCF Done:  E(RB3LYP) =  -1718.37447818     A.U. after   13 cycles
 SCF Done:  E(RB3LYP) =  -1718.37426827     A.U. after   13 cycles
 SCF Done:  E(RB3LYP) =  -1718.37526967     A.U. after   12 cycles
 SCF Done:  E(RB3LYP) =  -1718.37573066     A.U. after   12 cycles
 SCF Done:  E(RB3LYP) =  -1718.37521337     A.U. after   12 cycles
 SCF Done:  E(RB3LYP) =  -1718.37593131     A.U. after   12 cycles
 SCF Done:  E(RB3LYP) =  -1718.37594567     A.U. after   10 cycles
 SCF Done:  E(RB3LYP) =  -1718.37594509     A.U. after    9 cycles
 SCF Done:  E(RB3LYP) =  -1718.37595814     A.U. after    9 cycles
 SCF Done:  E(RB3LYP) =  -1718.37595784     A.U. after    8 cycles
 SCF Done:  E(RB3LYP) =  -1718.37595862     A.U. after    8 cycles
 SCF Done:  E(RB3LYP) =  -1718.37595905     A.U. after    7 cycles
 SCF Done:  E(RB3LYP) =  -1718.37595875     A.U. after    7 cycles
 SCF Done:  E(RB3LYP) =  -1718.37595856     A.U. after    7 cycles
 SCF Done:  E(RB3LYP) =  -1718.37595868     A.U. after    7 cycles
 SCF Done:  E(RB3LYP) =  -1718.37595860     A.U. after    7 cycles
 SCF Done:  E(RB3LYP) =  -1718.37595882     A.U. after    7 cycles
 SCF Done:  E(RB3LYP) =  -1718.37595886     A.U. after    6 cycles
 Optimization completed.
    -- Stationary point found.

                         Standard orientation:
 ---------------------------------------------------------------------
 Center     Atomic      Atomic             Coordinates (Angstroms)
 Number     Number       Type             X           Y           Z
 ---------------------------------------------------------------------
      1          6           0       -4.500697    0.697213    1.117963
      2          6           0       -3.483063    0.375023    2.030999
      3          6           0       -2.347207   -0.360340    1.673234
      4          6           0       -2.194851   -0.799915    0.359774
      5          6           0       -3.207703   -0.499066   -0.591448
      6          6           0       -4.353043    0.251431   -0.203229
      7          6           0       -1.043813   -1.566207   -0.096390
      8          6           0       -1.002790   -1.980848   -1.381075
      9          8           0       -1.985043   -1.687896   -2.290381
     10          6           0       -3.094290   -0.948079   -1.957647
     11          6           0        0.076920   -1.907368    0.863024
     12          6           0        1.358192   -2.416504    0.165180
     13          6           0        0.975975   -3.444332   -0.928480
     14          6           0        0.096071   -2.790749   -1.997399
     15          6           0       -5.708426    1.495763    1.543101
     16          8           0       -5.320493    0.549255   -1.085344
     17          8           0       -3.555597    0.767012    3.331964
     18          8           0       -3.907714   -0.739680   -2.856332
     19          8           0        2.090428   -1.417379   -0.525736
     20          6           0        2.447816   -0.172645    0.112641
     21          6           0        3.887911    0.145223   -0.301993
     22          6           0        4.343819    1.461618    0.335007
     23          6           0        3.362415    2.569439    0.100204
     24          6           0        2.071234    2.337004   -0.179463
     25          6           0        1.497412    0.944743   -0.350772
     26          8           0        4.832873   -0.826496    0.097965
     27          8           0        5.613930    1.851696   -0.168390
     28          6           0        1.095999    3.444316   -0.378078
     29          8           0        1.643932    4.674511   -0.247238
     30          8           0       -0.080222    3.266089   -0.635282
     31          6           0        0.739296    5.770526   -0.444996
     32          6           0        2.292942   -3.146211    1.148618
     33          8           0        1.634196   -3.973557    1.986851
     34          8           0        3.504041   -3.066663    1.148786
     35          1           0       -1.614975   -0.571157    2.442823
     36          1           0       -0.261889   -2.669433    1.573556
     37          1           0        0.325373   -1.029822    1.469829
     38          1           0        0.446694   -4.277501   -0.453662
     39          1           0        1.890341   -3.838654   -1.383069
     40          1           0        0.702084   -2.145086   -2.644598
     41          1           0       -0.346761   -3.557811   -2.643520
     42          1           0       -5.431815    2.493847    1.912762
     43          1           0       -6.382461    1.638402    0.697681
     44          1           0       -6.279005    0.989810    2.335565
     45          1           0       -5.047068    0.162579   -1.959616
     46          1           0       -4.370625    1.274528    3.469953
     47          1           0        2.418073   -0.290140    1.204962
     48          1           0        3.903815    0.272235   -1.397487
     49          1           0        4.418613    1.283079    1.424476
     50          1           0        3.737896    3.583864    0.191049
     51          1           0        0.532590    0.884423    0.161882
     52          1           0        1.271175    0.776976   -1.412091
     53          1           0        4.393355   -1.696311    0.152478
     54          1           0        6.179027    1.066117   -0.070539
     55          1           0        1.338234    6.671322   -0.307044
     56          1           0        0.313754    5.742281   -1.451778
     57          1           0       -0.075097    5.734739    0.283839
     58          1           0        2.315318   -4.433618    2.515001
 ---------------------------------------------------------------------

 The electronic state is 1-A.
 Alpha  occ. eigenvalues --  -19.23016 -19.21907 -19.19505 -19.18970 -19.17577
 Alpha  occ. eigenvalues --  -19.17379 -19.17130 -19.14098 -19.13795 -19.13257
 Alpha  occ. eigenvalues --  -19.13181 -10.35027 -10.32619 -10.31224 -10.28744
 Alpha  occ. eigenvalues --  -10.27052 -10.26847 -10.26790 -10.25378 -10.23898
 Alpha  occ. eigenvalues --  -10.23829 -10.23233 -10.22403 -10.21787 -10.21621
 Alpha  occ. eigenvalues --  -10.21302 -10.21155 -10.20822 -10.20520 -10.20180
 Alpha  occ. eigenvalues --  -10.20175 -10.19735 -10.19524 -10.19140  -1.14096
 Alpha  occ. eigenvalues --   -1.12318  -1.09861  -1.07754  -1.06501  -1.06274
 Alpha  occ. eigenvalues --   -1.04408  -1.02705  -1.02421  -1.00952  -0.99868
 Alpha  occ. eigenvalues --   -0.87790  -0.85978  -0.84036  -0.80907  -0.79055
 Alpha  occ. eigenvalues --   -0.77235  -0.76171  -0.75656  -0.73930  -0.71558
 Alpha  occ. eigenvalues --   -0.70808  -0.69341  -0.66461  -0.65932  -0.64492
 Alpha  occ. eigenvalues --   -0.63155  -0.62522  -0.61335  -0.59047  -0.57852
 Alpha  occ. eigenvalues --   -0.57222  -0.55163  -0.54557  -0.54100  -0.53437
 Alpha  occ. eigenvalues --   -0.52931  -0.51351  -0.50862  -0.50557  -0.49728
 Alpha  occ. eigenvalues --   -0.49208  -0.48201  -0.47910  -0.47737  -0.46884
 Alpha  occ. eigenvalues --   -0.46713  -0.46266  -0.45916  -0.45458  -0.44964
 Alpha  occ. eigenvalues --   -0.44572  -0.43888  -0.43244  -0.43083  -0.42656
 Alpha  occ. eigenvalues --   -0.42081  -0.41996  -0.41733  -0.41250  -0.40454
 Alpha  occ. eigenvalues --   -0.40089  -0.39949  -0.39709  -0.39651  -0.38990
 Alpha  occ. eigenvalues --   -0.38685  -0.38106  -0.37537  -0.37363  -0.37112
 Alpha  occ. eigenvalues --   -0.35858  -0.35479  -0.35284  -0.35095  -0.34666
 Alpha  occ. eigenvalues --   -0.34157  -0.33595  -0.32926  -0.32509  -0.30321
 Alpha  occ. eigenvalues --   -0.29924  -0.28848  -0.28251  -0.27494  -0.26983
 Alpha  occ. eigenvalues --   -0.26378  -0.25958  -0.25031  -0.23344  -0.21701
 Alpha virt. eigenvalues --   -0.04487  -0.03952  -0.02936  -0.02392   0.03856
 Alpha virt. eigenvalues --    0.04863   0.05767   0.06227   0.07544   0.07701
 Alpha virt. eigenvalues --    0.08020   0.09936   0.10968   0.11407   0.11573

 Mulliken atomic charges:
              1
     1  C    0.112709
     2  C    0.302222
     3  C   -0.273216
     4  C    0.147229
     5  C   -0.056417
     6  C    0.241808
     7  C    0.054796
     8  C    0.288066
     9  O   -0.499759
    10  C    0.602266
    11  C   -0.376477
    12  C    0.238216
    13  C   -0.302675
    14  C   -0.339490
    15  C   -0.585821
    16  O   -0.659772
    17  O   -0.639622
    18  O   -0.536686
    19  O   -0.538583
    20  C    0.089070
    21  C    0.129552
    22  C    0.112932
    23  C   -0.157301
    24  C    0.052971
    25  C   -0.352650
    26  O   -0.694156
    27  O   -0.645213
    28  C    0.603230
    29  O   -0.466141
    30  O   -0.491619
    31  C   -0.215472
    32  C    0.598308
    33  O   -0.566154
    34  O   -0.477751
    35  H    0.137607
    36  H    0.190996
    37  H    0.167159
    38  H    0.166589
    39  H    0.167262
    40  H    0.193458
    41  H    0.174975
    42  H    0.163008
    43  H    0.209636
    44  H    0.159660
    45  H    0.449448
    46  H    0.422077
    47  H    0.131279
    48  H    0.130019
    49  H    0.133824
    50  H    0.175841
    51  H    0.176227
    52  H    0.176966
    53  H    0.438003
    54  H    0.411603
    55  H    0.164540
    56  H    0.171679
    57  H    0.168286
    58  H    0.421457
 Sum of Mulliken atomic charges =   0.00000

 Dipole moment (field-independent basis, Debye):
    X=             -0.8157    Y=             -2.0153    Z=              4.7267  Tot=              5.2027
 Quadrupole moment (field-independent basis, Debye-Ang):
   XX=           -214.5696   YY=           -166.2512   ZZ=           -193.3223
   XY=            -13.3883   XZ=            -13.1834   YZ=             -1.1294

 Normal termination of Gaussian 09 at Tue Feb  2 11:52:13 2021.
