 Gaussian 09, Revision B.01,
 Gaussian 09:  EM64L-G09RevB.01 12-Aug-2010

 --------------------------------------
 # opt b3lyp/6-31g(d) geom=connectivity
 --------------------------------------

 -------------------
 Title Card Required
 -------------------
 Symbolic Z-matrix:
 Charge =  0 Multiplicity = 1

 SCF Done:  E(RB3LYP) =  -1718.35996723     A.U. after   15 cycles
 SCF Done:  E(RB3LYP) =  -1718.37063010     A.U. after   13 cycles
 SCF Done:  E(RB3LYP) =  -1718.36583574     A.U. after   13 cycles
 SCF Done:  E(RB3LYP) =  -1718.37315253     A.U. after   12 cycles
 SCF Done:  E(RB3LYP) =  -1718.37324653     A.U. after   13 cycles
 SCF Done:  E(RB3LYP) =  -1718.37446098     A.U. after   13 cycles
 SCF Done:  E(RB3LYP) =  -1718.37462503     A.U. after   13 cycles
 SCF Done:  E(RB3LYP) =  -1718.37500667     A.U. after   12 cycles
 SCF Done:  E(RB3LYP) =  -1718.37502821     A.U. after   11 cycles
 SCF Done:  E(RB3LYP) =  -1718.37504675     A.U. after   10 cycles
 SCF Done:  E(RB3LYP) =  -1718.37506865     A.U. after   10 cycles
 SCF Done:  E(RB3LYP) =  -1718.37507755     A.U. after   10 cycles
 SCF Done:  E(RB3LYP) =  -1718.37507779     A.U. after   10 cycles
 SCF Done:  E(RB3LYP) =  -1718.37507918     A.U. after   10 cycles
 SCF Done:  E(RB3LYP) =  -1718.37508044     A.U. after    8 cycles
 SCF Done:  E(RB3LYP) =  -1718.37508045     A.U. after    7 cycles
 SCF Done:  E(RB3LYP) =  -1718.37508038     A.U. after    6 cycles
 Optimization completed.
    -- Stationary point found.

                         Standard orientation:
 ---------------------------------------------------------------------
 Center     Atomic      Atomic             Coordinates (Angstroms)
 Number     Number       Type             X           Y           Z
 ---------------------------------------------------------------------
      1          6           0       -4.556914    0.900000    1.051451
      2          6           0       -3.524277    0.650179    1.970855
      3          6           0       -2.411109   -0.141341    1.665599
      4          6           0       -2.299022   -0.715798    0.401024
      5          6           0       -3.327355   -0.490096   -0.554788
      6          6           0       -4.448963    0.319987   -0.220377
      7          6           0       -1.174804   -1.550839    0.001933
      8          6           0       -1.172695   -2.094192   -1.234593
      9          8           0       -2.169360   -1.872118   -2.149322
     10          6           0       -3.254913   -1.078110   -1.869977
     11          6           0       -0.038018   -1.818436    0.964269
     12          6           0        1.210151   -2.417558    0.294306
     13          6           0        0.796691   -3.538443   -0.677457
     14          6           0       -0.105197   -2.987418   -1.787290
     15          6           0       -5.740106    1.761072    1.419965
     16          8           0       -5.430821    0.547780   -1.107836
     17          8           0       -3.559449    1.173512    3.226160
     18          8           0       -4.084684   -0.942668   -2.768316
     19          8           0        1.938115   -1.485013   -0.516620
     20          6           0        2.396100   -0.243286    0.056053
     21          6           0        3.858096   -0.075544   -0.363614
     22          6           0        4.445851    1.195658    0.246022
     23          6           0        3.555437    2.380046    0.005065
     24          6           0        2.250880    2.264416   -0.288565
     25          6           0        1.552777    0.929877   -0.460092
     26          8           0        4.678308   -1.147317    0.076273
     27          8           0        5.733535    1.474663   -0.288506
     28          6           0        1.384718    3.457949   -0.501766
     29          8           0        2.039428    4.631901   -0.352852
     30          8           0        0.203705    3.386942   -0.785426
     31          6           0        1.243046    5.807015   -0.564978
     32          6           0        2.154101   -2.978143    1.377822
     33          8           0        3.251320   -3.567391    0.832837
     34          8           0        1.983465   -2.913264    2.573009
     35          1           0       -1.665468   -0.290708    2.436725
     36          1           0       -0.362435   -2.501778    1.758422
     37          1           0        0.239910   -0.895919    1.483906
     38          1           0        0.265072   -4.310731   -0.107758
     39          1           0        1.689676   -3.998579   -1.107402
     40          1           0        0.491255   -2.427289   -2.518097
     41          1           0       -0.577971   -3.810855   -2.335494
     42          1           0       -6.431222    1.831693    0.579256
     43          1           0       -6.300537    1.347908    2.271275
     44          1           0       -5.437558    2.785382    1.681894
     45          1           0       -5.185162    0.067266   -1.943034
     46          1           0       -4.363280    1.706271    3.330367
     47          1           0        2.357803   -0.300511    1.152457
     48          1           0        3.898855    0.019577   -1.460632
     49          1           0        4.526246    1.029345    1.336642
     50          1           0        4.017843    3.357682    0.097620
     51          1           0        0.573495    0.960859    0.027376
     52          1           0        1.342527    0.761782   -1.524842
     53          1           0        4.257393   -1.973771   -0.216493
     54          1           0        6.243618    0.654299   -0.180424
     55          1           0        1.917932    6.648753   -0.406722
     56          1           0        0.841692    5.821682   -1.581886
     57          1           0        0.411373    5.841762    0.143970
     58          1           0        3.813591   -3.842315    1.582458
 ---------------------------------------------------------------------

 The electronic state is 1-A.
 Alpha  occ. eigenvalues --  -19.22421 -19.21703 -19.19261 -19.19250 -19.17739
 Alpha  occ. eigenvalues --  -19.16940 -19.16776 -19.15387 -19.14657 -19.13907
 Alpha  occ. eigenvalues --  -19.13541 -10.34275 -10.32425 -10.31522 -10.28241
 Alpha  occ. eigenvalues --  -10.26769 -10.26640 -10.26558 -10.25492 -10.24736
 Alpha  occ. eigenvalues --  -10.24195 -10.24103 -10.22144 -10.21299 -10.21192
 Alpha  occ. eigenvalues --  -10.21037 -10.20982 -10.20954 -10.20686 -10.20309
 Alpha  occ. eigenvalues --  -10.19973 -10.19807 -10.19561 -10.18850  -1.13240
 Alpha  occ. eigenvalues --   -1.12111  -1.10148  -1.07517  -1.06306  -1.05984
 Alpha  occ. eigenvalues --   -1.04224  -1.03489  -1.02493  -1.01305  -1.01244
 Alpha  occ. eigenvalues --   -0.87534  -0.85892  -0.84359  -0.80680  -0.78790
 Alpha  occ. eigenvalues --   -0.76869  -0.76126  -0.75828  -0.74395  -0.71905
 Alpha  occ. eigenvalues --   -0.70530  -0.69288  -0.66111  -0.65620  -0.64199
 Alpha  occ. eigenvalues --   -0.63746  -0.62631  -0.61103  -0.58784  -0.58253
 Alpha  occ. eigenvalues --   -0.56934  -0.55545  -0.54829  -0.54452  -0.53365
 Alpha  occ. eigenvalues --   -0.51840  -0.51676  -0.50887  -0.50565  -0.49676
 Alpha  occ. eigenvalues --   -0.49002  -0.48263  -0.48172  -0.47724  -0.47226
 Alpha  occ. eigenvalues --   -0.46567  -0.46227  -0.45488  -0.45253  -0.44425
 Alpha  occ. eigenvalues --   -0.44249  -0.44033  -0.43513  -0.42993  -0.42646
 Alpha  occ. eigenvalues --   -0.42348  -0.42198  -0.41639  -0.41025  -0.40549
 Alpha  occ. eigenvalues --   -0.40353  -0.40119  -0.39606  -0.39511  -0.39017
 Alpha  occ. eigenvalues --   -0.38485  -0.38269  -0.37392  -0.37337  -0.37132
 Alpha  occ. eigenvalues --   -0.35937  -0.35663  -0.35209  -0.34801  -0.34604
 Alpha  occ. eigenvalues --   -0.34488  -0.33641  -0.33356  -0.32856  -0.31139
 Alpha  occ. eigenvalues --   -0.30191  -0.28704  -0.28132  -0.28080  -0.27291
 Alpha  occ. eigenvalues --   -0.27096  -0.26113  -0.25698  -0.23129  -0.21460
 Alpha virt. eigenvalues --   -0.04427  -0.04221  -0.02674  -0.02344   0.04069
 Alpha virt. eigenvalues --    0.04747   0.05979   0.06471   0.07180   0.07955
 Alpha virt. eigenvalues --    0.08363   0.09986   0.10286   0.11207   0.11729

 Mulliken atomic charges:
              1
     1  C    0.112208
     2  C    0.302034
     3  C   -0.274884
     4  C    0.143281
     5  C   -0.058531
     6  C    0.240748
     7  C    0.055878
     8  C    0.286483
     9  O   -0.500292
    10  C    0.600636
    11  C   -0.360581
    12  C    0.224984
    13  C   -0.303346
    14  C   -0.341375
    15  C   -0.585819
    16  O   -0.660438
    17  O   -0.638480
    18  O   -0.538173
    19  O   -0.542490
    20  C    0.099753
    21  C    0.105695
    22  C    0.110269
    23  C   -0.159010
    24  C    0.054856
    25  C   -0.351337
    26  O   -0.678985
    27  O   -0.640245
    28  C    0.603670
    29  O   -0.466290
    30  O   -0.488522
    31  C   -0.216308
    32  C    0.599313
    33  O   -0.584809
    34  O   -0.457963
    35  H    0.144758
    36  H    0.182790
    37  H    0.170380
    38  H    0.157307
    39  H    0.171532
    40  H    0.188685
    41  H    0.173874
    42  H    0.209036
    43  H    0.159753
    44  H    0.162509
    45  H    0.449010
    46  H    0.421726
    47  H    0.145837
    48  H    0.135799
    49  H    0.140682
    50  H    0.177926
    51  H    0.180595
    52  H    0.176981
    53  H    0.422045
    54  H    0.407755
    55  H    0.165174
    56  H    0.172105
    57  H    0.170106
    58  H    0.421706
 Sum of Mulliken atomic charges =   0.00000

 Dipole moment (field-independent basis, Debye):
    X=              1.6773    Y=             -0.9168    Z=              2.8826  Tot=              3.4588
 Quadrupole moment (field-independent basis, Debye-Ang):
   XX=           -198.7512   YY=           -167.9797   ZZ=           -203.4822
   XY=            -16.8677   XZ=            -15.2100   YZ=              4.6309

 Normal termination of Gaussian 09 at Tue Feb  2 11:59:13 2021.
