 Gaussian 09, Revision B.01,
 Gaussian 09:  EM64L-G09RevB.01 12-Aug-2010

 --------------------------------------
 # opt b3lyp/6-31g(d) geom=connectivity
 --------------------------------------

 -------------------
 Title Card Required
 -------------------
 Symbolic Z-matrix:
 Charge =  0 Multiplicity = 1

 SCF Done:  E(RB3LYP) =  -1718.35904463     A.U. after   15 cycles
 SCF Done:  E(RB3LYP) =  -1718.37089080     A.U. after   13 cycles
 SCF Done:  E(RB3LYP) =  -1718.37327302     A.U. after   13 cycles
 SCF Done:  E(RB3LYP) =  -1718.37322010     A.U. after   13 cycles
 SCF Done:  E(RB3LYP) =  -1718.37397739     A.U. after   12 cycles
 SCF Done:  E(RB3LYP) =  -1718.37439410     A.U. after   12 cycles
 SCF Done:  E(RB3LYP) =  -1718.37408548     A.U. after   12 cycles
 SCF Done:  E(RB3LYP) =  -1718.37464703     A.U. after   12 cycles
 SCF Done:  E(RB3LYP) =  -1718.37467440     A.U. after   10 cycles
 SCF Done:  E(RB3LYP) =  -1718.37466820     A.U. after   10 cycles
 SCF Done:  E(RB3LYP) =  -1718.37453473     A.U. after   13 cycles
 SCF Done:  E(RB3LYP) =  -1718.37473013     A.U. after   12 cycles
 SCF Done:  E(RB3LYP) =  -1718.37474011     A.U. after   10 cycles
 SCF Done:  E(RB3LYP) =  -1718.37474565     A.U. after   10 cycles
 SCF Done:  E(RB3LYP) =  -1718.37474829     A.U. after   10 cycles
 SCF Done:  E(RB3LYP) =  -1718.37474924     A.U. after    7 cycles
 SCF Done:  E(RB3LYP) =  -1718.37474969     A.U. after    9 cycles
 SCF Done:  E(RB3LYP) =  -1718.37474980     A.U. after    7 cycles
 SCF Done:  E(RB3LYP) =  -1718.37474975     A.U. after    7 cycles
 SCF Done:  E(RB3LYP) =  -1718.37474974     A.U. after    5 cycles
 Optimization completed.
    -- Stationary point found.

                         Standard orientation:
 ---------------------------------------------------------------------
 Center     Atomic      Atomic             Coordinates (Angstroms)
 Number     Number       Type             X           Y           Z
 ---------------------------------------------------------------------
      1          6           0       -4.438706    0.369780    1.187702
      2          6           0       -3.399060    0.091550    2.087866
      3          6           0       -2.211896   -0.548024    1.708004
      4          6           0       -2.026355   -0.938356    0.380606
      5          6           0       -3.059961   -0.679012   -0.558001
      6          6           0       -4.257595   -0.023484   -0.145250
      7          6           0       -0.822895   -1.603722   -0.097026
      8          6           0       -0.755157   -1.975840   -1.394040
      9          8           0       -1.759110   -1.728944   -2.291446
     10          6           0       -2.917277   -1.078308   -1.937669
     11          6           0        0.328851   -1.883763    0.845880
     12          6           0        1.646040   -2.245216    0.121865
     13          6           0        1.348972   -3.274914   -0.996300
     14          6           0        0.399830   -2.677853   -2.038974
     15          6           0       -5.694306    1.060986    1.651020
     16          8           0       -5.241726    0.233782   -1.021441
     17          8           0       -3.608039    0.482492    3.375829
     18          8           0       -3.742401   -0.898858   -2.831055
     19          8           0        2.269537   -1.161430   -0.546883
     20          6           0        2.495663    0.101327    0.116234
     21          6           0        3.893225    0.576293   -0.290163
     22          6           0        4.206496    1.925441    0.365115
     23          6           0        3.108378    2.920908    0.149489
     24          6           0        1.847747    2.558937   -0.130991
     25          6           0        1.425844    1.115927   -0.324767
     26          8           0        4.931745   -0.297032    0.105059
     27          8           0        5.423928    2.458330   -0.136104
     28          6           0        0.835454    3.643661   -0.296194
     29          8           0       -0.374660    3.142043   -0.644249
     30          8           0        1.042024    4.831705   -0.147369
     31          6           0       -1.411680    4.116445   -0.838369
     32          6           0        2.659962   -2.907219    1.074582
     33          8           0        2.093325   -3.807528    1.906163
     34          8           0        3.858125   -2.718136    1.055855
     35          1           0       -1.451657   -0.742974    2.458736
     36          1           0        0.067459   -2.704256    1.523266
     37          1           0        0.502649   -1.013162    1.488198
     38          1           0        0.906719   -4.167160   -0.540127
     39          1           0        2.290719   -3.568904   -1.470281
     40          1           0        0.938316   -1.970207   -2.681016
     41          1           0        0.014814   -3.467042   -2.695490
     42          1           0       -5.469061    2.049859    2.067900
     43          1           0       -6.393004    1.181773    0.822482
     44          1           0       -6.187213    0.489178    2.446017
     45          1           0       -4.947717   -0.113147   -1.904405
     46          1           0       -2.832942    0.250099    3.910890
     47          1           0        2.482737   -0.040243    1.206046
     48          1           0        3.898559    0.718279   -1.383918
     49          1           0        4.304877    1.739656    1.451590
     50          1           0        3.357125    3.973649    0.251669
     51          1           0        0.480866    0.930460    0.194620
     52          1           0        1.212963    0.936965   -1.386853
     53          1           0        4.596156   -1.213396    0.103752
     54          1           0        6.074494    1.741084   -0.045832
     55          1           0       -2.304595    3.545793   -1.094981
     56          1           0       -1.571538    4.693707    0.076183
     57          1           0       -1.145646    4.802248   -1.647128
     58          1           0        2.823476   -4.216909    2.410085
 ---------------------------------------------------------------------

 The electronic state is 1-A.
 Alpha  occ. eigenvalues --  -19.23475 -19.22556 -19.20273 -19.19223 -19.17996
 Alpha  occ. eigenvalues --  -19.17861 -19.17453 -19.14700 -19.13916 -19.13531
 Alpha  occ. eigenvalues --  -19.13039 -10.35465 -10.33245 -10.31242 -10.29293
 Alpha  occ. eigenvalues --  -10.27734 -10.27426 -10.27216 -10.25784 -10.24029
 Alpha  occ. eigenvalues --  -10.23861 -10.23530 -10.23240 -10.22547 -10.22134
 Alpha  occ. eigenvalues --  -10.22015 -10.21711 -10.21226 -10.20894 -10.20448
 Alpha  occ. eigenvalues --  -10.20262 -10.20131 -10.20071 -10.18167  -1.14526
 Alpha  occ. eigenvalues --   -1.12976  -1.09892  -1.08430  -1.06890  -1.06745
 Alpha  occ. eigenvalues --   -1.04863  -1.03314  -1.02635  -1.00897  -1.00140
 Alpha  occ. eigenvalues --   -0.88470  -0.86526  -0.84315  -0.81353  -0.79545
 Alpha  occ. eigenvalues --   -0.77736  -0.76299  -0.75753  -0.74554  -0.71557
 Alpha  occ. eigenvalues --   -0.70665  -0.69767  -0.67311  -0.66370  -0.64966
 Alpha  occ. eigenvalues --   -0.63501  -0.62893  -0.61992  -0.59498  -0.58191
 Alpha  occ. eigenvalues --   -0.57730  -0.55412  -0.55011  -0.54084  -0.53503
 Alpha  occ. eigenvalues --   -0.53090  -0.52032  -0.51304  -0.50788  -0.49931
 Alpha  occ. eigenvalues --   -0.49076  -0.48646  -0.48097  -0.47913  -0.47779
 Alpha  occ. eigenvalues --   -0.47239  -0.46838  -0.46589  -0.45627  -0.45408
 Alpha  occ. eigenvalues --   -0.44545  -0.44389  -0.44283  -0.43561  -0.43013
 Alpha  occ. eigenvalues --   -0.42668  -0.42205  -0.41896  -0.41452  -0.40426
 Alpha  occ. eigenvalues --   -0.40314  -0.39863  -0.39554  -0.39308  -0.39045
 Alpha  occ. eigenvalues --   -0.38853  -0.38439  -0.38188  -0.37806  -0.37449
 Alpha  occ. eigenvalues --   -0.36205  -0.35792  -0.35656  -0.35370  -0.35177
 Alpha  occ. eigenvalues --   -0.34536  -0.34258  -0.33297  -0.32649  -0.30710
 Alpha  occ. eigenvalues --   -0.30086  -0.29511  -0.28813  -0.27690  -0.26888
 Alpha  occ. eigenvalues --   -0.26836  -0.26216  -0.25091  -0.24120  -0.22153
 Alpha virt. eigenvalues --   -0.05160  -0.03964  -0.03468  -0.02883   0.03168
 Alpha virt. eigenvalues --    0.04336   0.04703   0.05767   0.07074   0.07296
 Alpha virt. eigenvalues --    0.07568   0.09435   0.09933   0.10760   0.11135

 Mulliken atomic charges:
              1
     1  C    0.097408
     2  C    0.322846
     3  C   -0.306805
     4  C    0.141573
     5  C   -0.061265
     6  C    0.237742
     7  C    0.055017
     8  C    0.290251
     9  O   -0.497999
    10  C    0.599355
    11  C   -0.377363
    12  C    0.237564
    13  C   -0.302781
    14  C   -0.339618
    15  C   -0.518171
    16  O   -0.654960
    17  O   -0.632391
    18  O   -0.533518
    19  O   -0.537840
    20  C    0.091005
    21  C    0.127653
    22  C    0.110380
    23  C   -0.147776
    24  C    0.053442
    25  C   -0.352358
    26  O   -0.691537
    27  O   -0.642132
    28  C    0.595429
    29  O   -0.467478
    30  O   -0.490713
    31  C   -0.218883
    32  C    0.598047
    33  O   -0.568064
    34  O   -0.474832
    35  H    0.118375
    36  H    0.189711
    37  H    0.161534
    38  H    0.166741
    39  H    0.169377
    40  H    0.194523
    41  H    0.176862
    42  H    0.165607
    43  H    0.185106
    44  H    0.166843
    45  H    0.448561
    46  H    0.414313
    47  H    0.129412
    48  H    0.130962
    49  H    0.133555
    50  H    0.182227
    51  H    0.167143
    52  H    0.175553
    53  H    0.436668
    54  H    0.411127
    55  H    0.169394
    56  H    0.170450
    57  H    0.172810
    58  H    0.421921
 Sum of Mulliken atomic charges =   0.00000

 Dipole moment (field-independent basis, Debye):
    X=             -0.1645    Y=             -5.7834    Z=              4.6518  Tot=              7.4239
 Quadrupole moment (field-independent basis, Debye-Ang):
   XX=           -225.7316   YY=           -194.9480   ZZ=           -186.3639
   XY=            -21.3257   XZ=             -4.3242   YZ=             -6.7744

 Normal termination of Gaussian 09 at Tue Feb  2 13:26:22 2021.
