 Gaussian 09, Revision B.01,
 Gaussian 09:  EM64L-G09RevB.01 12-Aug-2010

 ---------------------------------------
 # opt rb3lyp/6-31g(d) geom=connectivity
 ---------------------------------------

 -------------------
 Title Card Required
 -------------------
 Symbolic Z-matrix:
 Charge =  0 Multiplicity = 1

 SCF Done:  E(RB3LYP) =  -1387.30535392     A.U. after   16 cycles
 SCF Done:  E(RB3LYP) =  -1387.31788322     A.U. after   13 cycles
 SCF Done:  E(RB3LYP) =  -1387.31997137     A.U. after   13 cycles
 SCF Done:  E(RB3LYP) =  -1387.31922640     A.U. after   13 cycles
 SCF Done:  E(RB3LYP) =  -1387.32072921     A.U. after   13 cycles
 SCF Done:  E(RB3LYP) =  -1387.32120393     A.U. after   13 cycles
 SCF Done:  E(RB3LYP) =  -1387.32063225     A.U. after   13 cycles
 SCF Done:  E(RB3LYP) =  -1387.32151355     A.U. after   13 cycles
 SCF Done:  E(RB3LYP) =  -1387.32154418     A.U. after   11 cycles
 SCF Done:  E(RB3LYP) =  -1387.32156407     A.U. after   10 cycles
 SCF Done:  E(RB3LYP) =  -1387.32156792     A.U. after   10 cycles
 SCF Done:  E(RB3LYP) =  -1387.32157148     A.U. after   10 cycles
 SCF Done:  E(RB3LYP) =  -1387.32157432     A.U. after   10 cycles
 SCF Done:  E(RB3LYP) =  -1387.32157754     A.U. after   10 cycles
 SCF Done:  E(RB3LYP) =  -1387.32157903     A.U. after    8 cycles
 SCF Done:  E(RB3LYP) =  -1387.32157973     A.U. after    7 cycles
 SCF Done:  E(RB3LYP) =  -1387.32157985     A.U. after    6 cycles
 Optimization completed.
    -- Stationary point found.

                         Standard orientation:
 ---------------------------------------------------------------------
 Center     Atomic      Atomic             Coordinates (Angstroms)
 Number     Number       Type             X           Y           Z
 ---------------------------------------------------------------------
      1          6           0       -1.526332    0.601025    3.178434
      2          6           0       -1.506251    1.752277    2.496771
      3          6           0       -1.650984    1.775063    0.989016
      4          6           0       -1.498620    0.397265    0.272006
      5          6           0       -1.119908   -0.846788    1.114908
      6          6           0       -1.697263   -0.753471    2.548252
      7          6           0       -0.495401    0.668299   -0.877503
      8          6           0        0.948093    0.489154   -0.453248
      9          6           0        1.385738   -0.421010    0.453497
     10          6           0        0.394006   -1.183535    1.220031
     11          6           0        2.863437   -0.534355    0.778163
     12          8           0        3.494948    0.472041    1.049183
     13          6           0        3.510765   -1.913993    0.707610
     14          6           0        3.421411   -2.475218   -0.738575
     15          6           0        4.938870   -1.885858    1.260348
     16          8           0        0.718608   -2.085408    1.989263
     17          6           0       -0.474959    2.187983   -1.150049
     18          6           0        0.923556    2.403510   -1.777838
     19          8           0        1.734855    1.352317   -1.103068
     20          6           0       -0.676093    2.754262    0.270808
     21          8           0       -0.715774   -0.164496   -2.001065
     22          6           0       -1.820507   -1.984509    0.328223
     23          6           0       -3.116127   -1.313323   -0.153167
     24          8           0       -2.770362    0.070663   -0.344534
     25          6           0       -3.736294   -1.907989   -1.399953
     26          6           0       -4.006346   -3.391211   -1.336562
     27          6           0       -4.069271   -1.160489   -2.457489
     28          6           0        0.953727    2.126183   -3.282571
     29          6           0        1.607296    3.730466   -1.457929
     30          1           0       -1.276977    2.492639   -1.829568
     31          1           0       -2.675597    2.095243    0.751938
     32          6           0       -1.413745    3.087807    3.192325
     33          1           0       -1.455953    0.629495    4.264953
     34          1           0       -1.209435   -1.527097    3.148053
     35          1           0       -2.767509   -1.009003    2.530770
     36          1           0        2.889992   -2.565703    1.333997
     37          1           0        3.817007   -3.499275   -0.721134
     38          1           0        2.364460   -2.560852   -1.020469
     39          1           0        4.942987   -1.571377    2.308674
     40          1           0        5.388169   -2.884096    1.199982
     41          1           0        5.573761   -1.184383    0.712036
     42          1           0        0.280200    2.764466    0.804355
     43          1           0       -1.052835    3.780973    0.265511
     44          1           0       -1.686608   -0.241734   -2.079499
     45          1           0       -1.996771   -2.860153    0.958366
     46          1           0       -1.212923   -2.288687   -0.530009
     47          1           0       -3.872046   -1.362568    0.647998
     48          1           0       -3.078009   -3.968714   -1.242294
     49          1           0       -4.624474   -3.643358   -0.463918
     50          1           0       -4.531157   -3.735523   -2.232069
     51          1           0       -3.921153   -0.085503   -2.467171
     52          1           0       -4.527398   -1.604244   -3.337300
     53          1           0        1.989978    2.107634   -3.635454
     54          1           0        0.424806    2.922381   -3.819137
     55          1           0        0.480105    1.170760   -3.514797
     56          1           0        2.611151    3.746960   -1.893372
     57          1           0        1.033563    4.558465   -1.889236
     58          1           0        1.704578    3.893757   -0.382449
     59          1           0       -1.386250    2.964674    4.279301
     60          1           0       -0.517343    3.647682    2.896446
     61          1           0       -2.276540    3.723190    2.945729
     62          6           0        4.162938   -1.655866   -1.802465
     63          1           0        5.237978   -1.603667   -1.598661
     64          1           0        4.036340   -2.109164   -2.792414
     65          1           0        3.785288   -0.628244   -1.855653
 ---------------------------------------------------------------------

 The electronic state is 1-A.
 Alpha  occ. eigenvalues --  -19.19522 -19.16638 -19.15818 -19.12708 -19.12404
 Alpha  occ. eigenvalues --  -10.27258 -10.27230 -10.26589 -10.26194 -10.25743
 Alpha  occ. eigenvalues --  -10.25705 -10.25311 -10.21329 -10.20948 -10.20577
 Alpha  occ. eigenvalues --  -10.20278 -10.19794 -10.19771 -10.19432 -10.19337
 Alpha  occ. eigenvalues --  -10.19129 -10.18791 -10.18759 -10.18468 -10.18417
 Alpha  occ. eigenvalues --  -10.18104 -10.18070 -10.17557 -10.17476 -10.16240
 Alpha  occ. eigenvalues --  -10.15681  -1.09159  -1.06007  -1.02971  -1.02580
 Alpha  occ. eigenvalues --   -1.02179  -0.86712  -0.83580  -0.82446  -0.81363
 Alpha  occ. eigenvalues --   -0.80218  -0.79236  -0.76553  -0.74277  -0.73119
 Alpha  occ. eigenvalues --   -0.71624  -0.71124  -0.69867  -0.69633  -0.67942
 Alpha  occ. eigenvalues --   -0.65448  -0.64148  -0.63194  -0.61542  -0.60580
 Alpha  occ. eigenvalues --   -0.59351  -0.58637  -0.56887  -0.54524  -0.53849
 Alpha  occ. eigenvalues --   -0.52633  -0.52030  -0.50729  -0.50242  -0.49169
 Alpha  occ. eigenvalues --   -0.47827  -0.47047  -0.46572  -0.46258  -0.45779
 Alpha  occ. eigenvalues --   -0.44988  -0.44736  -0.44314  -0.43723  -0.43157
 Alpha  occ. eigenvalues --   -0.43147  -0.42739  -0.42036  -0.41835  -0.41260
 Alpha  occ. eigenvalues --   -0.40808  -0.40605  -0.40508  -0.39918  -0.39181
 Alpha  occ. eigenvalues --   -0.38984  -0.38718  -0.38124  -0.37627  -0.37529
 Alpha  occ. eigenvalues --   -0.37317  -0.37204  -0.37037  -0.36994  -0.36596
 Alpha  occ. eigenvalues --   -0.36162  -0.35617  -0.35178  -0.34770  -0.34457
 Alpha  occ. eigenvalues --   -0.33870  -0.33491  -0.33336  -0.32722  -0.31916
 Alpha  occ. eigenvalues --   -0.31394  -0.31125  -0.30831  -0.28290  -0.26460
 Alpha  occ. eigenvalues --   -0.25997  -0.24487  -0.24058  -0.23362  -0.22550
 Alpha virt. eigenvalues --   -0.04693  -0.00791   0.00887   0.02233   0.05567
 Alpha virt. eigenvalues --    0.07221   0.08290   0.08879   0.09397   0.10038
 Alpha virt. eigenvalues --    0.10364   0.10938   0.11258   0.11939   0.12404

 Mulliken atomic charges:
              1
     1  C   -0.188370
     2  C    0.193870
     3  C   -0.189496
     4  C    0.322395
     5  C   -0.050102
     6  C   -0.332659
     7  C    0.198257
     8  C    0.408483
     9  C   -0.095813
    10  C    0.421100
    11  C    0.422591
    12  O   -0.454108
    13  C   -0.174881
    14  C   -0.265762
    15  C   -0.444154
    16  O   -0.512302
    17  C   -0.165914
    18  C    0.302905
    19  O   -0.518823
    20  C   -0.325608
    21  O   -0.661165
    22  C   -0.324923
    23  C    0.106337
    24  O   -0.590145
    25  C    0.186986
    26  C   -0.519516
    27  C   -0.408559
    28  C   -0.469410
    29  C   -0.457283
    30  H    0.142959
    31  H    0.166364
    32  C   -0.519998
    33  H    0.122946
    34  H    0.183509
    35  H    0.145374
    36  H    0.181405
    37  H    0.136605
    38  H    0.141631
    39  H    0.151730
    40  H    0.131381
    41  H    0.157824
    42  H    0.174207
    43  H    0.151034
    44  H    0.415855
    45  H    0.165640
    46  H    0.171624
    47  H    0.145327
    48  H    0.169600
    49  H    0.159082
    50  H    0.161857
    51  H    0.153251
    52  H    0.139602
    53  H    0.158578
    54  H    0.142975
    55  H    0.191596
    56  H    0.166314
    57  H    0.148017
    58  H    0.168184
    59  H    0.158087
    60  H    0.159877
    61  H    0.150171
    62  C   -0.454161
    63  H    0.148079
    64  H    0.139039
    65  H    0.160501
 Sum of Mulliken atomic charges =   0.00000

 Dipole moment (field-independent basis, Debye):
    X=             -4.5880    Y=              1.5020    Z=             -2.1447  Tot=              5.2826
 Quadrupole moment (field-independent basis, Debye-Ang):
   XX=           -190.1726   YY=           -171.9977   ZZ=           -183.7480
   XY=              2.3352   XZ=             -5.3076   YZ=             -0.0132

 Normal termination of Gaussian 09 at Wed Mar 24 14:47:54 2021.
