 Gaussian 09, Revision B.01,
 Gaussian 09:  EM64L-G09RevB.01 12-Aug-2010

 ---------------------------------------
 # opt rb3lyp/6-31g(d) geom=connectivity
 ---------------------------------------

 -------------------
 Title Card Required
 -------------------
 Symbolic Z-matrix:
 Charge =  0 Multiplicity = 1

 SCF Done:  E(RB3LYP) =  -1387.30358740     A.U. after   16 cycles
 SCF Done:  E(RB3LYP) =  -1387.31587123     A.U. after   13 cycles
 SCF Done:  E(RB3LYP) =  -1387.31805568     A.U. after   13 cycles
 SCF Done:  E(RB3LYP) =  -1387.31784870     A.U. after   13 cycles
 SCF Done:  E(RB3LYP) =  -1387.31882117     A.U. after   13 cycles
 SCF Done:  E(RB3LYP) =  -1387.31898753     A.U. after   12 cycles
 SCF Done:  E(RB3LYP) =  -1387.31903879     A.U. after   12 cycles
 SCF Done:  E(RB3LYP) =  -1387.31904545     A.U. after   12 cycles
 SCF Done:  E(RB3LYP) =  -1387.31912865     A.U. after   11 cycles
 SCF Done:  E(RB3LYP) =  -1387.31923562     A.U. after   13 cycles
 SCF Done:  E(RB3LYP) =  -1387.31940101     A.U. after   13 cycles
 SCF Done:  E(RB3LYP) =  -1387.31941951     A.U. after   10 cycles
 SCF Done:  E(RB3LYP) =  -1387.31925034     A.U. after   13 cycles
 SCF Done:  E(RB3LYP) =  -1387.31944405     A.U. after   13 cycles
 SCF Done:  E(RB3LYP) =  -1387.31945018     A.U. after   10 cycles
 SCF Done:  E(RB3LYP) =  -1387.31945154     A.U. after   10 cycles
 SCF Done:  E(RB3LYP) =  -1387.31945171     A.U. after    8 cycles
 SCF Done:  E(RB3LYP) =  -1387.31945171     A.U. after    8 cycles
 SCF Done:  E(RB3LYP) =  -1387.31945170     A.U. after    7 cycles
 SCF Done:  E(RB3LYP) =  -1387.31945171     A.U. after    6 cycles
 Optimization completed.
    -- Stationary point found.

                         Standard orientation:
 ---------------------------------------------------------------------
 Center     Atomic      Atomic             Coordinates (Angstroms)
 Number     Number       Type             X           Y           Z
 ---------------------------------------------------------------------
      1          6           0       -1.691609    0.694169    3.106997
      2          6           0       -1.595176    1.825242    2.398778
      3          6           0       -1.683186    1.817436    0.886482
      4          6           0       -1.574830    0.417179    0.206304
      5          6           0       -1.290186   -0.824663    1.091987
      6          6           0       -1.900825   -0.667946    2.505855
      7          6           0       -0.520863    0.611117   -0.917255
      8          6           0        0.894814    0.362152   -0.445590
      9          6           0        1.251700   -0.521161    0.512171
     10          6           0        0.199652   -1.232197    1.254035
     11          6           0        2.689003   -0.708619    0.953822
     12          8           0        3.014076   -0.431400    2.092154
     13          6           0        3.667054   -1.283265   -0.068878
     14          6           0        5.123854   -1.077992    0.377139
     15          6           0        3.305549   -2.767726   -0.302789
     16          8           0        0.467547   -2.160632    2.005869
     17          6           0       -0.412586    2.122962   -1.216171
     18          6           0        1.016258    2.258625   -1.796837
     19          8           0        1.754234    1.188694   -1.069156
     20          6           0       -0.635621    2.730227    0.184194
     21          8           0       -0.755111   -0.228678   -2.032640
     22          6           0       -2.028143   -1.942504    0.311442
     23          6           0       -3.269630   -1.215380   -0.225833
     24          8           0       -2.838916    0.140013   -0.448885
     25          6           0       -3.889197   -1.811533   -1.472057
     26          6           0       -4.246730   -3.274145   -1.373024
     27          6           0       -4.148130   -1.079672   -2.560773
     28          6           0        1.084541    1.943240   -3.292954
     29          6           0        1.745582    3.563063   -1.485377
     30          1           0       -1.173275    2.453154   -1.930426
     31          1           0       -2.680824    2.182484    0.603595
     32          6           0       -1.467415    3.172549    3.065918
     33          1           0       -1.657264    0.747633    4.194186
     34          1           0       -1.461386   -1.445041    3.138310
     35          1           0       -2.979998   -0.880692    2.466372
     36          1           0        3.496830   -0.744837   -1.012698
     37          1           0        5.253804   -0.028254    0.667100
     38          1           0        5.302430   -1.660606    1.288894
     39          1           0        2.260643   -2.881109   -0.608918
     40          1           0        3.932495   -3.198829   -1.089555
     41          1           0        3.452466   -3.349318    0.614170
     42          1           0        0.299886    2.705914    0.752969
     43          1           0       -0.960058    3.773927    0.143634
     44          1           0       -1.726973   -0.265347   -2.127962
     45          1           0       -2.269026   -2.791795    0.955924
     46          1           0       -1.412906   -2.300028   -0.520367
     47          1           0       -4.048454   -1.196124    0.554458
     48          1           0       -3.356190   -3.900700   -1.236592
     49          1           0       -4.900504   -3.463863   -0.510640
     50          1           0       -4.767541   -3.614950   -2.272217
     51          1           0       -3.936316   -0.015980   -2.598532
     52          1           0       -4.606705   -1.523773   -3.440200
     53          1           0        2.129985    1.872592   -3.610902
     54          1           0        0.607787    2.746783   -3.866231
     55          1           0        0.577734    1.003253   -3.518276
     56          1           0        2.765716    3.525058   -1.880445
     57          1           0        1.227378    4.402546   -1.962039
     58          1           0        1.805019    3.755313   -0.411720
     59          1           0       -1.484318    3.075113    4.155666
     60          1           0       -0.536289    3.684507    2.791046
     61          1           0       -2.290989    3.839713    2.773171
     62          6           0        6.159497   -1.440817   -0.692758
     63          1           0        5.997640   -0.868788   -1.615456
     64          1           0        7.173474   -1.219197   -0.340646
     65          1           0        6.130810   -2.504787   -0.953372
 ---------------------------------------------------------------------

 The electronic state is 1-A.
 Alpha  occ. eigenvalues --  -19.19598 -19.16598 -19.15754 -19.12682 -19.12415
 Alpha  occ. eigenvalues --  -10.26954 -10.26900 -10.26784 -10.26396 -10.25747
 Alpha  occ. eigenvalues --  -10.25680 -10.25221 -10.21166 -10.20873 -10.20633
 Alpha  occ. eigenvalues --  -10.20227 -10.19824 -10.19644 -10.19354 -10.19207
 Alpha  occ. eigenvalues --  -10.19141 -10.19039 -10.18702 -10.18399 -10.18339
 Alpha  occ. eigenvalues --  -10.18323 -10.18291 -10.17946 -10.17056 -10.16810
 Alpha  occ. eigenvalues --  -10.16614  -1.08988  -1.05959  -1.03107  -1.02524
 Alpha  occ. eigenvalues --   -1.02084  -0.86646  -0.83657  -0.82431  -0.81343
 Alpha  occ. eigenvalues --   -0.80163  -0.79520  -0.76682  -0.74212  -0.73126
 Alpha  occ. eigenvalues --   -0.72101  -0.71277  -0.70030  -0.69542  -0.67889
 Alpha  occ. eigenvalues --   -0.64894  -0.64599  -0.63113  -0.62069  -0.60550
 Alpha  occ. eigenvalues --   -0.59233  -0.58487  -0.56773  -0.54827  -0.53748
 Alpha  occ. eigenvalues --   -0.52710  -0.52155  -0.50552  -0.50308  -0.49154
 Alpha  occ. eigenvalues --   -0.47940  -0.47505  -0.46643  -0.46335  -0.45765
 Alpha  occ. eigenvalues --   -0.45035  -0.44849  -0.44285  -0.43595  -0.43168
 Alpha  occ. eigenvalues --   -0.42997  -0.42664  -0.41978  -0.41721  -0.41196
 Alpha  occ. eigenvalues --   -0.40781  -0.40602  -0.40444  -0.40000  -0.39533
 Alpha  occ. eigenvalues --   -0.38968  -0.38868  -0.38646  -0.38258  -0.37889
 Alpha  occ. eigenvalues --   -0.37499  -0.37393  -0.37158  -0.37072  -0.36541
 Alpha  occ. eigenvalues --   -0.36202  -0.35988  -0.35054  -0.34452  -0.34344
 Alpha  occ. eigenvalues --   -0.33954  -0.33584  -0.33403  -0.32750  -0.31852
 Alpha  occ. eigenvalues --   -0.31522  -0.31314  -0.30986  -0.28254  -0.26482
 Alpha  occ. eigenvalues --   -0.25914  -0.24544  -0.24009  -0.23243  -0.22676
 Alpha virt. eigenvalues --   -0.04408  -0.01043   0.00950   0.02379   0.05484
 Alpha virt. eigenvalues --    0.07316   0.08406   0.08723   0.09279   0.09969
 Alpha virt. eigenvalues --    0.10214   0.10891   0.11109   0.11998   0.12577

 Mulliken atomic charges:
              1
     1  C   -0.184559
     2  C    0.193747
     3  C   -0.189708
     4  C    0.321000
     5  C   -0.054089
     6  C   -0.333710
     7  C    0.202332
     8  C    0.394793
     9  C   -0.097120
    10  C    0.434674
    11  C    0.421027
    12  O   -0.441456
    13  C   -0.167747
    14  C   -0.241956
    15  C   -0.456692
    16  O   -0.499552
    17  C   -0.165187
    18  C    0.306146
    19  O   -0.539885
    20  C   -0.322787
    21  O   -0.663145
    22  C   -0.324251
    23  C    0.105970
    24  O   -0.590340
    25  C    0.187355
    26  C   -0.519551
    27  C   -0.408329
    28  C   -0.468283
    29  C   -0.459357
    30  H    0.143248
    31  H    0.165894
    32  C   -0.519475
    33  H    0.124372
    34  H    0.185492
    35  H    0.144701
    36  H    0.149004
    37  H    0.141241
    38  H    0.148233
    39  H    0.155955
    40  H    0.150949
    41  H    0.163515
    42  H    0.168977
    43  H    0.150854
    44  H    0.416275
    45  H    0.166497
    46  H    0.170263
    47  H    0.145332
    48  H    0.169957
    49  H    0.159122
    50  H    0.161486
    51  H    0.152667
    52  H    0.139164
    53  H    0.154945
    54  H    0.143447
    55  H    0.192982
    56  H    0.162524
    57  H    0.151000
    58  H    0.163828
    59  H    0.158955
    60  H    0.157911
    61  H    0.149325
    62  C   -0.452589
    63  H    0.137320
    64  H    0.143491
    65  H    0.143795
 Sum of Mulliken atomic charges =   0.00000

 Dipole moment (field-independent basis, Debye):
    X=             -3.6404    Y=              2.6975    Z=             -3.5454  Tot=              5.7531
 Quadrupole moment (field-independent basis, Debye-Ang):
   XX=           -182.9353   YY=           -173.1627   ZZ=           -189.4636
   XY=              6.9687   XZ=             -9.1763   YZ=              2.1835

 Normal termination of Gaussian 09 at Wed Mar 24 15:50:55 2021.
