 Gaussian 09, Revision B.01,
 Gaussian 09:  EM64L-G09RevB.01 12-Aug-2010

 ---------------------------------------
 # opt rb3lyp/6-31g(d) geom=connectivity
 ---------------------------------------

 -------------------
 Title Card Required
 -------------------
 Symbolic Z-matrix:
 Charge =  0 Multiplicity = 1

 SCF Done:  E(RB3LYP) =  -1387.30071958     A.U. after   16 cycles
 SCF Done:  E(RB3LYP) =  -1387.31327363     A.U. after   13 cycles
 SCF Done:  E(RB3LYP) =  -1387.31594784     A.U. after   13 cycles
 SCF Done:  E(RB3LYP) =  -1387.31669523     A.U. after   13 cycles
 SCF Done:  E(RB3LYP) =  -1387.31495242     A.U. after   15 cycles
 SCF Done:  E(RB3LYP) =  -1387.31743821     A.U. after   14 cycles
 SCF Done:  E(RB3LYP) =  -1387.31812514     A.U. after   13 cycles
 SCF Done:  E(RB3LYP) =  -1387.31803799     A.U. after   13 cycles
 SCF Done:  E(RB3LYP) =  -1387.31884625     A.U. after   13 cycles
 SCF Done:  E(RB3LYP) =  -1387.31904689     A.U. after   12 cycles
 SCF Done:  E(RB3LYP) =  -1387.31933391     A.U. after   12 cycles
 SCF Done:  E(RB3LYP) =  -1387.31935238     A.U. after   11 cycles
 SCF Done:  E(RB3LYP) =  -1387.31936785     A.U. after   12 cycles
 SCF Done:  E(RB3LYP) =  -1387.31937416     A.U. after   12 cycles
 SCF Done:  E(RB3LYP) =  -1387.31937521     A.U. after   11 cycles
 SCF Done:  E(RB3LYP) =  -1387.31937777     A.U. after   10 cycles
 SCF Done:  E(RB3LYP) =  -1387.31937877     A.U. after   10 cycles
 SCF Done:  E(RB3LYP) =  -1387.31937895     A.U. after    7 cycles
 SCF Done:  E(RB3LYP) =  -1387.31937905     A.U. after    6 cycles
 SCF Done:  E(RB3LYP) =  -1387.31937906     A.U. after    6 cycles
 Optimization completed.
    -- Stationary point found.

                         Standard orientation:
 ---------------------------------------------------------------------
 Center     Atomic      Atomic             Coordinates (Angstroms)
 Number     Number       Type             X           Y           Z
 ---------------------------------------------------------------------
      1          6           0       -2.026822    0.290262    2.822033
      2          6           0       -2.659012    1.160264    2.024972
      3          6           0       -2.149612    1.410031    0.624136
      4          6           0       -1.387756    0.223807   -0.052815
      5          6           0       -0.861953   -0.908711    0.889553
      6          6           0       -0.802827   -0.469657    2.383506
      7          6           0       -0.278123    0.906018   -0.907084
      8          6           0        1.099445    0.834480   -0.255633
      9          6           0        1.590282   -0.306149    0.317173
     10          6           0        0.589529   -1.372781    0.539279
     11          6           0        3.034020   -0.407743    0.727600
     12          8           0        3.670732    0.615249    0.940233
     13          6           0        3.697485   -1.781729    0.832314
     14          6           0        3.877213   -2.392928   -0.585686
     15          6           0        5.011524   -1.692636    1.615985
     16          8           0        0.862874   -2.564732    0.613074
     17          6           0       -0.519514    2.430369   -0.879714
     18          6           0        0.899410    3.011515   -1.056250
     19          8           0        1.756314    1.976353   -0.417252
     20          6           0       -1.196595    2.627528    0.491309
     21          8           0       -0.172134    0.335262   -2.195172
     22          6           0       -1.866800   -2.070822    0.668334
     23          6           0       -2.930015   -1.516742   -0.283420
     24          8           0       -2.258432   -0.437973   -0.980556
     25          6           0       -3.561121   -2.434464   -1.307293
     26          6           0       -4.450819   -1.749771   -2.316778
     27          6           0       -3.400609   -3.760423   -1.283561
     28          6           0        1.315835    3.107575   -2.526026
     29          6           0        1.193590    4.310783   -0.313339
     30          1           0       -1.182134    2.735025   -1.695034
     31          1           0       -3.006102    1.599722   -0.037360
     32          6           0       -3.862681    1.951608    2.466474
     33          1           0       -2.380109    0.133847    3.840178
     34          1           0       -0.663067   -1.367625    2.995446
     35          1           0        0.092601    0.145742    2.550800
     36          1           0        3.004213   -2.448447    1.355016
     37          1           0        2.886261   -2.526862   -1.032437
     38          1           0        4.291324   -3.402063   -0.456895
     39          1           0        5.486858   -2.679260    1.666452
     40          1           0        4.835084   -1.346385    2.639992
     41          1           0        5.710363   -0.989562    1.155931
     42          1           0       -0.454795    2.600636    1.298441
     43          1           0       -1.727152    3.581081    0.572983
     44          1           0       -0.959120   -0.240857   -2.280951
     45          1           0       -2.312929   -2.409831    1.607024
     46          1           0       -1.329187   -2.914505    0.231631
     47          1           0       -3.744472   -1.058801    0.302347
     48          1           0       -3.887524   -1.022878   -2.912984
     49          1           0       -4.911986   -2.472922   -2.995735
     50          1           0       -5.253363   -1.189179   -1.817480
     51          1           0       -3.906890   -4.397119   -2.004675
     52          1           0       -2.775865   -4.264816   -0.553766
     53          1           0        2.386395    3.324903   -2.595816
     54          1           0        0.767074    3.919194   -3.017432
     55          1           0        1.105586    2.175408   -3.055351
     56          1           0        0.995509    4.222603    0.757658
     57          1           0        2.245089    4.584973   -0.441659
     58          1           0        0.575562    5.119743   -0.718254
     59          1           0       -4.145097    1.713557    3.496797
     60          1           0       -3.674689    3.032758    2.410427
     61          1           0       -4.728723    1.752495    1.819933
     62          6           0        4.774008   -1.590637   -1.535963
     63          1           0        5.797582   -1.503143   -1.155457
     64          1           0        4.826792   -2.080382   -2.515267
     65          1           0        4.393597   -0.574598   -1.691761
 ---------------------------------------------------------------------

 The electronic state is 1-A.
 Alpha  occ. eigenvalues --  -19.19850 -19.17174 -19.15184 -19.13281 -19.11363
 Alpha  occ. eigenvalues --  -10.27341 -10.27279 -10.26610 -10.26214 -10.26049
 Alpha  occ. eigenvalues --  -10.25623 -10.24994 -10.21537 -10.20680 -10.20588
 Alpha  occ. eigenvalues --  -10.20411 -10.20391 -10.20133 -10.19963 -10.19295
 Alpha  occ. eigenvalues --  -10.19028 -10.18952 -10.18949 -10.18649 -10.18582
 Alpha  occ. eigenvalues --  -10.18331 -10.18182 -10.17093 -10.16683 -10.15679
 Alpha  occ. eigenvalues --  -10.15368  -1.09505  -1.06607  -1.03303  -1.02387
 Alpha  occ. eigenvalues --   -1.01374  -0.87101  -0.83752  -0.82188  -0.81381
 Alpha  occ. eigenvalues --   -0.80158  -0.78679  -0.76687  -0.74140  -0.73117
 Alpha  occ. eigenvalues --   -0.72135  -0.70619  -0.70096  -0.69199  -0.68299
 Alpha  occ. eigenvalues --   -0.65310  -0.64003  -0.63696  -0.61486  -0.60710
 Alpha  occ. eigenvalues --   -0.59179  -0.58222  -0.56847  -0.54684  -0.53414
 Alpha  occ. eigenvalues --   -0.52622  -0.51626  -0.51171  -0.49891  -0.49444
 Alpha  occ. eigenvalues --   -0.48062  -0.47024  -0.46853  -0.46415  -0.45969
 Alpha  occ. eigenvalues --   -0.45240  -0.44413  -0.44233  -0.43572  -0.43181
 Alpha  occ. eigenvalues --   -0.42698  -0.42587  -0.42386  -0.41586  -0.41385
 Alpha  occ. eigenvalues --   -0.40841  -0.40412  -0.40214  -0.39988  -0.39584
 Alpha  occ. eigenvalues --   -0.39340  -0.38953  -0.38491  -0.38182  -0.37574
 Alpha  occ. eigenvalues --   -0.37237  -0.37077  -0.36745  -0.36595  -0.36306
 Alpha  occ. eigenvalues --   -0.35810  -0.35487  -0.35164  -0.34444  -0.34115
 Alpha  occ. eigenvalues --   -0.33756  -0.33262  -0.32924  -0.32773  -0.32516
 Alpha  occ. eigenvalues --   -0.31424  -0.30606  -0.30262  -0.28268  -0.27364
 Alpha  occ. eigenvalues --   -0.25924  -0.24570  -0.24281  -0.23403  -0.21957
 Alpha virt. eigenvalues --   -0.04843  -0.00790   0.00926   0.00954   0.05582
 Alpha virt. eigenvalues --    0.07192   0.08189   0.08722   0.09519   0.10255
 Alpha virt. eigenvalues --    0.10401   0.11192   0.11441   0.11915   0.12168

 Mulliken atomic charges:
              1
     1  C   -0.193990
     2  C    0.199003
     3  C   -0.198039
     4  C    0.314786
     5  C   -0.020988
     6  C   -0.330046
     7  C    0.193695
     8  C    0.403207
     9  C   -0.071039
    10  C    0.375547
    11  C    0.406620
    12  O   -0.473526
    13  C   -0.159149
    14  C   -0.263498
    15  C   -0.442278
    16  O   -0.488699
    17  C   -0.152740
    18  C    0.291570
    19  O   -0.488251
    20  C   -0.310973
    21  O   -0.667550
    22  C   -0.334998
    23  C    0.104059
    24  O   -0.584334
    25  C    0.188140
    26  C   -0.506369
    27  C   -0.393714
    28  C   -0.468541
    29  C   -0.459770
    30  H    0.148120
    31  H    0.147130
    32  C   -0.521367
    33  H    0.125594
    34  H    0.161549
    35  H    0.165334
    36  H    0.161036
    37  H    0.155835
    38  H    0.133090
    39  H    0.130065
    40  H    0.141133
    41  H    0.161885
    42  H    0.163968
    43  H    0.152116
    44  H    0.422638
    45  H    0.148415
    46  H    0.189177
    47  H    0.135570
    48  H    0.169042
    49  H    0.154275
    50  H    0.151109
    51  H    0.139466
    52  H    0.152432
    53  H    0.163190
    54  H    0.144399
    55  H    0.194552
    56  H    0.162628
    57  H    0.170983
    58  H    0.149055
    59  H    0.158776
    60  H    0.156785
    61  H    0.154908
    62  C   -0.448591
    63  H    0.145481
    64  H    0.137766
    65  H    0.154322
 Sum of Mulliken atomic charges =   0.00000

 Dipole moment (field-independent basis, Debye):
    X=             -5.7726    Y=              2.6412    Z=              0.0008  Tot=              6.3481
 Quadrupole moment (field-independent basis, Debye-Ang):
   XX=           -189.7050   YY=           -176.3007   ZZ=           -181.5506
   XY=             -2.4606   XZ=             -4.1990   YZ=             -2.3022

 Normal termination of Gaussian 09 at Wed Mar 24 15:16:17 2021.
