 Gaussian 09, Revision B.01,
 Gaussian 09:  EM64L-G09RevB.01 12-Aug-2010

 ---------------------------------------
 # opt rb3lyp/6-31g(d) geom=connectivity
 ---------------------------------------

 -------------------
 Title Card Required
 -------------------
 Symbolic Z-matrix:
 Charge =  0 Multiplicity = 1

 SCF Done:  E(RB3LYP) =  -1387.30265055     A.U. after   16 cycles
 SCF Done:  E(RB3LYP) =  -1387.31545536     A.U. after   13 cycles
 SCF Done:  E(RB3LYP) =  -1387.31775490     A.U. after   13 cycles
 SCF Done:  E(RB3LYP) =  -1387.31686320     A.U. after   13 cycles
 SCF Done:  E(RB3LYP) =  -1387.31848358     A.U. after   13 cycles
 SCF Done:  E(RB3LYP) =  -1387.31899117     A.U. after   12 cycles
 SCF Done:  E(RB3LYP) =  -1387.31854614     A.U. after   13 cycles
 SCF Done:  E(RB3LYP) =  -1387.31922688     A.U. after   12 cycles
 SCF Done:  E(RB3LYP) =  -1387.31932661     A.U. after   11 cycles
 SCF Done:  E(RB3LYP) =  -1387.31934824     A.U. after   10 cycles
 SCF Done:  E(RB3LYP) =  -1387.31935455     A.U. after   10 cycles
 SCF Done:  E(RB3LYP) =  -1387.31935807     A.U. after   10 cycles
 SCF Done:  E(RB3LYP) =  -1387.31935909     A.U. after    8 cycles
 SCF Done:  E(RB3LYP) =  -1387.31935918     A.U. after    8 cycles
 SCF Done:  E(RB3LYP) =  -1387.31935935     A.U. after    7 cycles
 SCF Done:  E(RB3LYP) =  -1387.31935953     A.U. after    6 cycles
 SCF Done:  E(RB3LYP) =  -1387.31935970     A.U. after    6 cycles
 Optimization completed.
    -- Stationary point found.

                         Standard orientation:
 ---------------------------------------------------------------------
 Center     Atomic      Atomic             Coordinates (Angstroms)
 Number     Number       Type             X           Y           Z
 ---------------------------------------------------------------------
      1          6           0       -1.600833    0.580509    3.109911
      2          6           0       -1.621003    1.729698    2.426693
      3          6           0       -1.693300    1.751166    0.914759
      4          6           0       -1.476028    0.383137    0.189499
      5          6           0       -1.130292   -0.875038    1.040687
      6          6           0       -1.685500   -0.783202    2.488114
      7          6           0       -0.406042    0.688674   -0.891662
      8          6           0        1.012290    0.508853   -0.396324
      9          6           0        1.406729   -0.449216    0.480389
     10          6           0        0.374813   -1.262246    1.135203
     11          6           0        2.868763   -0.587503    0.859069
     12          8           0        3.497407    0.405776    1.181577
     13          6           0        3.509593   -1.969502    0.775796
     14          6           0        3.436946   -2.510061   -0.678848
     15          6           0        4.930046   -1.956880    1.348392
     16          8           0        0.653492   -2.243831    1.820007
     17          6           0       -0.390462    2.211280   -1.141389
     18          6           0        1.042037    2.454520   -1.675407
     19          8           0        1.823591    1.405252   -0.964827
     20          6           0       -0.695107    2.757373    0.266427
     21          8           0       -0.571482   -0.121099   -2.041200
     22          6           0       -1.882811   -1.996958    0.275968
     23          6           0       -3.155662   -1.278678   -0.180892
     24          8           0       -2.689924    0.045120   -0.540726
     25          6           0       -3.918861   -1.920412   -1.319564
     26          6           0       -3.319491   -1.897773   -2.704006
     27          6           0       -5.090218   -2.513183   -1.066980
     28          6           0        1.170574    2.198088   -3.178652
     29          6           0        1.684532    3.785917   -1.295666
     30          1           0       -1.151054    2.510686   -1.869204
     31          1           0       -2.708361    2.057841    0.624994
     32          6           0       -1.633635    3.067590    3.124366
     33          1           0       -1.575755    0.615074    4.198475
     34          1           0       -1.149097   -1.522810    3.089899
     35          1           0       -2.737514   -1.106005    2.495985
     36          1           0        2.875772   -2.627979    1.381655
     37          1           0        3.831632   -3.534548   -0.671625
     38          1           0        2.383381   -2.591146   -0.973780
     39          1           0        4.922419   -1.655289    2.400425
     40          1           0        5.373764   -2.957161    1.281299
     41          1           0        5.577064   -1.252838    0.817646
     42          1           0        0.223932    2.782965    0.861974
     43          1           0       -1.093327    3.775797    0.246390
     44          1           0       -1.541752   -0.185259   -2.132232
     45          1           0       -2.085830   -2.861020    0.913493
     46          1           0       -1.300716   -2.333517   -0.587367
     47          1           0       -3.844195   -1.177132    0.668489
     48          1           0       -3.320810   -0.879271   -3.114998
     49          1           0       -2.282759   -2.254668   -2.715557
     50          1           0       -3.897738   -2.524275   -3.389176
     51          1           0       -5.536131   -2.503565   -0.075367
     52          1           0       -5.644214   -3.037077   -1.841426
     53          1           0        2.227129    2.196235   -3.465691
     54          1           0        0.666500    2.995359   -3.737079
     55          1           0        0.722975    1.241066   -3.452297
     56          1           0        2.714662    3.821641   -1.663534
     57          1           0        1.128431    4.611447   -1.753855
     58          1           0        1.707694    3.936545   -0.214230
     59          1           0       -1.650717    2.944387    4.211555
     60          1           0       -0.756281    3.676105    2.870620
     61          1           0       -2.517223    3.655505    2.837001
     62          6           0        4.192079   -1.675898   -1.721473
     63          1           0        5.264913   -1.629302   -1.504931
     64          1           0        4.075761   -2.112766   -2.720047
     65          1           0        3.817820   -0.646313   -1.762627
 ---------------------------------------------------------------------

 The electronic state is 1-A.
 Alpha  occ. eigenvalues --  -19.19641 -19.16747 -19.15935 -19.12742 -19.12372
 Alpha  occ. eigenvalues --  -10.27319 -10.27306 -10.26669 -10.26198 -10.25855
 Alpha  occ. eigenvalues --  -10.25835 -10.25053 -10.21468 -10.20802 -10.20615
 Alpha  occ. eigenvalues --  -10.20352 -10.19837 -10.19572 -10.19409 -10.19374
 Alpha  occ. eigenvalues --  -10.19209 -10.18904 -10.18841 -10.18783 -10.18490
 Alpha  occ. eigenvalues --  -10.18208 -10.18156 -10.17513 -10.17442 -10.16269
 Alpha  occ. eigenvalues --  -10.15672  -1.09281  -1.05978  -1.03018  -1.02625
 Alpha  occ. eigenvalues --   -1.02181  -0.86656  -0.83599  -0.82456  -0.81377
 Alpha  occ. eigenvalues --   -0.80221  -0.79230  -0.76620  -0.74252  -0.73142
 Alpha  occ. eigenvalues --   -0.71611  -0.71114  -0.70103  -0.69921  -0.67812
 Alpha  occ. eigenvalues --   -0.65494  -0.64156  -0.63113  -0.61530  -0.60562
 Alpha  occ. eigenvalues --   -0.59293  -0.58645  -0.56974  -0.54660  -0.53838
 Alpha  occ. eigenvalues --   -0.52679  -0.51975  -0.50654  -0.50431  -0.49395
 Alpha  occ. eigenvalues --   -0.47609  -0.47104  -0.46607  -0.46251  -0.45661
 Alpha  occ. eigenvalues --   -0.45073  -0.44550  -0.44488  -0.43866  -0.43668
 Alpha  occ. eigenvalues --   -0.43025  -0.42865  -0.42050  -0.41462  -0.41401
 Alpha  occ. eigenvalues --   -0.40714  -0.40654  -0.40516  -0.39980  -0.39314
 Alpha  occ. eigenvalues --   -0.39155  -0.38417  -0.38267  -0.37839  -0.37587
 Alpha  occ. eigenvalues --   -0.37401  -0.37343  -0.37047  -0.36745  -0.36613
 Alpha  occ. eigenvalues --   -0.36454  -0.35585  -0.35224  -0.34968  -0.34301
 Alpha  occ. eigenvalues --   -0.33806  -0.33501  -0.33354  -0.32752  -0.32118
 Alpha  occ. eigenvalues --   -0.31445  -0.31199  -0.30826  -0.28360  -0.27093
 Alpha  occ. eigenvalues --   -0.25726  -0.24477  -0.24159  -0.23379  -0.22557
 Alpha virt. eigenvalues --   -0.04793  -0.00869   0.00635   0.02186   0.05311
 Alpha virt. eigenvalues --    0.07179   0.08196   0.08851   0.09229   0.09974
 Alpha virt. eigenvalues --    0.10464   0.10514   0.11364   0.12098   0.12286

 Mulliken atomic charges:
              1
     1  C   -0.187876
     2  C    0.194942
     3  C   -0.189973
     4  C    0.328777
     5  C   -0.044965
     6  C   -0.338302
     7  C    0.185875
     8  C    0.409391
     9  C   -0.093947
    10  C    0.415755
    11  C    0.419452
    12  O   -0.453914
    13  C   -0.174972
    14  C   -0.265522
    15  C   -0.443560
    16  O   -0.511217
    17  C   -0.163392
    18  C    0.301846
    19  O   -0.517817
    20  C   -0.324876
    21  O   -0.670386
    22  C   -0.311366
    23  C    0.076578
    24  O   -0.596717
    25  C    0.240465
    26  C   -0.547148
    27  C   -0.404011
    28  C   -0.469444
    29  C   -0.457659
    30  H    0.143570
    31  H    0.164529
    32  C   -0.519677
    33  H    0.122415
    34  H    0.185014
    35  H    0.146661
    36  H    0.183509
    37  H    0.136713
    38  H    0.142575
    39  H    0.151281
    40  H    0.131457
    41  H    0.157046
    42  H    0.172953
    43  H    0.151704
    44  H    0.432747
    45  H    0.169144
    46  H    0.163655
    47  H    0.136058
    48  H    0.166416
    49  H    0.174361
    50  H    0.161798
    51  H    0.142135
    52  H    0.142054
    53  H    0.159253
    54  H    0.143501
    55  H    0.190650
    56  H    0.166842
    57  H    0.148376
    58  H    0.167584
    59  H    0.157993
    60  H    0.159234
    61  H    0.150314
    62  C   -0.453973
    63  H    0.148189
    64  H    0.138987
    65  H    0.158915
 Sum of Mulliken atomic charges =   0.00000

 Dipole moment (field-independent basis, Debye):
    X=             -4.4355    Y=              2.0869    Z=             -2.3509  Tot=              5.4365
 Quadrupole moment (field-independent basis, Debye-Ang):
   XX=           -189.7992   YY=           -175.6887   ZZ=           -181.7794
   XY=              1.2929   XZ=             -5.6207   YZ=              0.6380

 Normal termination of Gaussian 09 at Wed Mar 24 17:41:04 2021.
