 Gaussian 09, Revision B.01,
 Gaussian 09:  EM64L-G09RevB.01 12-Aug-2010

 ---------------------------------------
 # opt rb3lyp/6-31g(d) geom=connectivity
 ---------------------------------------

 -------------------
 Title Card Required
 -------------------
 Symbolic Z-matrix:
 Charge =  0 Multiplicity = 1

 SCF Done:  E(RB3LYP) =  -1387.30440814     A.U. after   16 cycles
 SCF Done:  E(RB3LYP) =  -1387.31705934     A.U. after   13 cycles
 SCF Done:  E(RB3LYP) =  -1387.31900893     A.U. after   13 cycles
 SCF Done:  E(RB3LYP) =  -1387.31758815     A.U. after   13 cycles
 SCF Done:  E(RB3LYP) =  -1387.31962436     A.U. after   13 cycles
 SCF Done:  E(RB3LYP) =  -1387.32005903     A.U. after   12 cycles
 SCF Done:  E(RB3LYP) =  -1387.32005368     A.U. after   13 cycles
 SCF Done:  E(RB3LYP) =  -1387.32022903     A.U. after   12 cycles
 SCF Done:  E(RB3LYP) =  -1387.32031606     A.U. after   12 cycles
 SCF Done:  E(RB3LYP) =  -1387.32036191     A.U. after   11 cycles
 SCF Done:  E(RB3LYP) =  -1387.32036728     A.U. after   11 cycles
 SCF Done:  E(RB3LYP) =  -1387.32037465     A.U. after   10 cycles
 SCF Done:  E(RB3LYP) =  -1387.32037627     A.U. after   10 cycles
 SCF Done:  E(RB3LYP) =  -1387.32037621     A.U. after    7 cycles
 SCF Done:  E(RB3LYP) =  -1387.32037634     A.U. after    7 cycles
 Optimization completed.
    -- Stationary point found.

                         Standard orientation:
 ---------------------------------------------------------------------
 Center     Atomic      Atomic             Coordinates (Angstroms)
 Number     Number       Type             X           Y           Z
 ---------------------------------------------------------------------
      1          6           0       -0.541409   -1.917183    2.613097
      2          6           0       -0.509681   -0.626958    2.970049
      3          6           0       -1.095574    0.448381    2.078039
      4          6           0       -1.419718    0.012917    0.615133
      5          6           0       -1.040424   -1.417352    0.161855
      6          6           0       -1.146344   -2.423949    1.332632
      7          6           0       -0.774382    1.109063   -0.269983
      8          6           0        0.672179    0.817517   -0.624920
      9          6           0        1.200241   -0.426093   -0.798997
     10          6           0        0.355339   -1.589754   -0.499206
     11          6           0        2.628467   -0.579583   -1.273273
     12          8           0        3.055063    0.182442   -2.125795
     13          6           0        3.506365   -1.666046   -0.646247
     14          6           0        4.917908   -1.700125   -1.265456
     15          6           0        3.521559   -1.548077    0.892841
     16          8           0        0.713376   -2.737005   -0.755029
     17          6           0       -0.564855    2.364495    0.603556
     18          6           0        0.594926    3.089675   -0.118452
     19          8           0        1.373262    1.950772   -0.679531
     20          6           0       -0.226262    1.735950    1.971094
     21          8           0       -1.470058    1.306521   -1.486063
     22          6           0       -2.132681   -1.710586   -0.898179
     23          6           0       -3.370912   -1.019752   -0.305809
     24          8           0       -2.854458    0.106796    0.428729
     25          6           0       -4.424166   -0.592728   -1.306728
     26          6           0       -4.917602   -1.684687   -2.223640
     27          6           0       -4.916363    0.650305   -1.336461
     28          6           0        0.126531    3.956654   -1.289195
     29          6           0        1.564631    3.862678    0.771694
     30          1           0       -1.466544    2.982738    0.651181
     31          1           0       -2.067601    0.741233    2.500077
     32          6           0        0.029332   -0.184749    4.308126
     33          1           0       -0.150343   -2.665515    3.301308
     34          1           0       -2.203480   -2.672850    1.509656
     35          1           0       -0.663566   -3.351413    1.012399
     36          1           0        3.005843   -2.612098   -0.886027
     37          1           0        5.383477   -2.651190   -0.972039
     38          1           0        4.813607   -1.725776   -2.355985
     39          1           0        4.169165   -2.323035    1.319075
     40          1           0        2.522747   -1.679872    1.319469
     41          1           0        3.904285   -0.575709    1.222535
     42          1           0       -0.401189    2.421574    2.805084
     43          1           0        0.833116    1.458980    2.001221
     44          1           0       -2.417317    1.216440   -1.263710
     45          1           0       -2.269591   -2.784373   -1.049979
     46          1           0       -1.868679   -1.253527   -1.856708
     47          1           0       -3.856244   -1.696030    0.417170
     48          1           0       -4.117884   -2.057699   -2.875930
     49          1           0       -5.284660   -2.546866   -1.649896
     50          1           0       -5.734726   -1.328961   -2.857399
     51          1           0       -4.590342    1.410854   -0.634253
     52          1           0       -5.682623    0.934299   -2.052738
     53          1           0       -0.553103    3.401901   -1.937850
     54          1           0        0.990946    4.285616   -1.874617
     55          1           0       -0.390859    4.845911   -0.910738
     56          1           0        1.045750    4.703435    1.245376
     57          1           0        2.385055    4.263852    0.168675
     58          1           0        1.995049    3.234669    1.555021
     59          1           0        0.366216   -1.041390    4.899833
     60          1           0        0.875938    0.506245    4.206699
     61          1           0       -0.739855    0.345146    4.888107
     62          6           0        5.852036   -0.544698   -0.883105
     63          1           0        6.054567   -0.520047    0.194194
     64          1           0        5.423399    0.417502   -1.176297
     65          1           0        6.817103   -0.652147   -1.392200
 ---------------------------------------------------------------------

 The electronic state is 1-A.
 Alpha  occ. eigenvalues --  -19.19638 -19.16730 -19.15817 -19.12769 -19.12097
 Alpha  occ. eigenvalues --  -10.27464 -10.27264 -10.26649 -10.26056 -10.25849
 Alpha  occ. eigenvalues --  -10.25825 -10.25358 -10.21394 -10.20958 -10.20683
 Alpha  occ. eigenvalues --  -10.20562 -10.20106 -10.19800 -10.19771 -10.19395
 Alpha  occ. eigenvalues --  -10.19146 -10.19049 -10.19035 -10.18839 -10.18503
 Alpha  occ. eigenvalues --  -10.18471 -10.17967 -10.17521 -10.16920 -10.16344
 Alpha  occ. eigenvalues --  -10.15300  -1.09328  -1.06098  -1.03009  -1.02630
 Alpha  occ. eigenvalues --   -1.01968  -0.86907  -0.83685  -0.82492  -0.81483
 Alpha  occ. eigenvalues --   -0.80381  -0.78924  -0.76662  -0.74404  -0.73323
 Alpha  occ. eigenvalues --   -0.71973  -0.70867  -0.69916  -0.69615  -0.68123
 Alpha  occ. eigenvalues --   -0.65241  -0.64128  -0.63330  -0.62084  -0.60788
 Alpha  occ. eigenvalues --   -0.59470  -0.58407  -0.56960  -0.54473  -0.53919
 Alpha  occ. eigenvalues --   -0.52755  -0.51873  -0.50887  -0.50393  -0.49250
 Alpha  occ. eigenvalues --   -0.48004  -0.47122  -0.46870  -0.46321  -0.45897
 Alpha  occ. eigenvalues --   -0.44997  -0.44776  -0.44563  -0.43882  -0.43309
 Alpha  occ. eigenvalues --   -0.42633  -0.42261  -0.42077  -0.41831  -0.41395
 Alpha  occ. eigenvalues --   -0.40867  -0.40791  -0.40453  -0.39874  -0.39437
 Alpha  occ. eigenvalues --   -0.39132  -0.38784  -0.38340  -0.38162  -0.37756
 Alpha  occ. eigenvalues --   -0.37527  -0.37236  -0.37175  -0.36945  -0.36688
 Alpha  occ. eigenvalues --   -0.36296  -0.36062  -0.35291  -0.34736  -0.34497
 Alpha  occ. eigenvalues --   -0.34043  -0.33714  -0.32804  -0.32079  -0.31827
 Alpha  occ. eigenvalues --   -0.31378  -0.30982  -0.30788  -0.28309  -0.26508
 Alpha  occ. eigenvalues --   -0.26014  -0.24506  -0.24323  -0.23573  -0.22391
 Alpha virt. eigenvalues --   -0.04892  -0.01343   0.00824   0.01762   0.06085
 Alpha virt. eigenvalues --    0.07738   0.08045   0.08570   0.09297   0.09818
 Alpha virt. eigenvalues --    0.10443   0.10882   0.11365   0.11905   0.12756

 Mulliken atomic charges:
              1
     1  C   -0.190683
     2  C    0.191099
     3  C   -0.189722
     4  C    0.321006
     5  C   -0.053717
     6  C   -0.332760
     7  C    0.196695
     8  C    0.403298
     9  C   -0.082402
    10  C    0.422418
    11  C    0.420294
    12  O   -0.454185
    13  C   -0.174490
    14  C   -0.245005
    15  C   -0.467488
    16  O   -0.516953
    17  C   -0.163657
    18  C    0.301030
    19  O   -0.505240
    20  C   -0.322814
    21  O   -0.657887
    22  C   -0.325150
    23  C    0.104896
    24  O   -0.589853
    25  C    0.186770
    26  C   -0.519825
    27  C   -0.408332
    28  C   -0.467709
    29  C   -0.459683
    30  H    0.144457
    31  H    0.168150
    32  C   -0.519716
    33  H    0.123789
    34  H    0.146872
    35  H    0.183174
    36  H    0.185128
    37  H    0.120855
    38  H    0.146648
    39  H    0.147965
    40  H    0.152456
    41  H    0.146603
    42  H    0.151880
    43  H    0.163415
    44  H    0.416411
    45  H    0.165870
    46  H    0.176474
    47  H    0.145170
    48  H    0.171443
    49  H    0.158585
    50  H    0.162220
    51  H    0.153277
    52  H    0.140302
    53  H    0.194889
    54  H    0.163404
    55  H    0.141040
    56  H    0.150535
    57  H    0.168903
    58  H    0.158773
    59  H    0.158493
    60  H    0.157423
    61  H    0.152512
    62  C   -0.452586
    63  H    0.131717
    64  H    0.168410
    65  H    0.135106
 Sum of Mulliken atomic charges =   0.00000

 Dipole moment (field-independent basis, Debye):
    X=             -4.2281    Y=              1.8515    Z=              3.9627  Tot=              6.0834
 Quadrupole moment (field-independent basis, Debye-Ang):
   XX=           -185.0292   YY=           -176.1624   ZZ=           -186.7458
   XY=              3.7591   XZ=             12.3723   YZ=              3.3913

 Normal termination of Gaussian 09 at Wed Mar 24 17:01:07 2021.
