 Gaussian 09, Revision B.01,
 Gaussian 09:  EM64L-G09RevB.01 12-Aug-2010

 ---------------------------------------
 # opt rb3lyp/6-31g(d) geom=connectivity
 ---------------------------------------

 -------------------
 Title Card Required
 -------------------
 Symbolic Z-matrix:
 Charge =  0 Multiplicity = 1

 SCF Done:  E(RB3LYP) =  -1387.30340408     A.U. after   16 cycles
 SCF Done:  E(RB3LYP) =  -1387.31593908     A.U. after   13 cycles
 SCF Done:  E(RB3LYP) =  -1387.31779180     A.U. after   13 cycles
 SCF Done:  E(RB3LYP) =  -1387.31734304     A.U. after   13 cycles
 SCF Done:  E(RB3LYP) =  -1387.31883157     A.U. after   13 cycles
 SCF Done:  E(RB3LYP) =  -1387.31898323     A.U. after   13 cycles
 SCF Done:  E(RB3LYP) =  -1387.31902789     A.U. after   12 cycles
 SCF Done:  E(RB3LYP) =  -1387.31912687     A.U. after   11 cycles
 SCF Done:  E(RB3LYP) =  -1387.31914658     A.U. after   10 cycles
 SCF Done:  E(RB3LYP) =  -1387.31914943     A.U. after   10 cycles
 SCF Done:  E(RB3LYP) =  -1387.31914925     A.U. after   10 cycles
 SCF Done:  E(RB3LYP) =  -1387.31914867     A.U. after   10 cycles
 SCF Done:  E(RB3LYP) =  -1387.31914839     A.U. after    7 cycles
 SCF Done:  E(RB3LYP) =  -1387.31914822     A.U. after    7 cycles
 SCF Done:  E(RB3LYP) =  -1387.31914812     A.U. after    6 cycles
 Optimization completed.
    -- Stationary point found.

                         Standard orientation:
 ---------------------------------------------------------------------
 Center     Atomic      Atomic             Coordinates (Angstroms)
 Number     Number       Type             X           Y           Z
 ---------------------------------------------------------------------
      1          6           0       -1.761078    0.427395    2.905296
      2          6           0       -2.177652    1.483952    2.196926
      3          6           0       -1.741111    1.657211    0.760594
      4          6           0       -1.389132    0.348270   -0.018544
      5          6           0       -1.119059   -0.938741    0.837370
      6          6           0       -0.851615   -0.630609    2.341888
      7          6           0       -0.215139    0.762005   -0.966459
      8          6           0        1.143295    0.305086   -0.460647
      9          6           0        1.357924   -0.906244    0.101211
     10          6           0        0.144069   -1.718871    0.376708
     11          6           0        2.684168   -1.432284    0.566768
     12          8           0        2.764923   -1.971737    1.659095
     13          6           0        3.877808   -1.352358   -0.385720
     14          6           0        5.217253   -1.323827    0.365948
     15          6           0        3.780640   -2.569587   -1.334548
     16          8           0        0.154756   -2.937152    0.364101
     17          6           0       -0.041990    2.294826   -0.870470
     18          6           0        1.457724    2.502309   -1.178611
     19          8           0        2.073757    1.254318   -0.655830
     20          6           0       -0.514144    2.586616    0.567362
     21          8           0       -0.384810    0.254549   -2.274299
     22          6           0       -2.394421   -1.797683    0.632796
     23          6           0       -3.352942   -0.918829   -0.172882
     24          8           0       -2.483557    0.000168   -0.879591
     25          6           0       -4.288553   -1.563672   -1.171818
     26          6           0       -5.042557   -0.600680   -2.056812
     27          6           0       -4.486062   -2.883800   -1.224150
     28          6           0        1.738949    2.561678   -2.682294
     29          6           0        2.141491    3.650700   -0.443465
     30          1           0       -0.673446    2.805959   -1.603293
     31          1           0       -2.569108    2.099850    0.189646
     32          6           0       -3.058498    2.561265    2.775289
     33          1           0       -2.058372    0.327632    3.948345
     34          1           0       -0.954961   -1.568437    2.898043
     35          1           0        0.197914   -0.331874    2.478174
     36          1           0        3.777387   -0.443025   -0.989623
     37          1           0        5.266472   -2.197334    1.026055
     38          1           0        6.025289   -1.433586   -0.369984
     39          1           0        4.573938   -2.522474   -2.088969
     40          1           0        2.816679   -2.601829   -1.853394
     41          1           0        3.892926   -3.503702   -0.773227
     42          1           0       -0.762451    3.639914    0.730050
     43          1           0        0.262911    2.321538    1.294269
     44          1           0       -1.305966   -0.076951   -2.297198
     45          1           0       -2.839191   -2.105825    1.582589
     46          1           0       -2.117668   -2.702193    0.086600
     47          1           0       -3.964552   -0.313633    0.516971
     48          1           0       -5.617933    0.117460   -1.456243
     49          1           0       -4.355959   -0.011000   -2.674700
     50          1           0       -5.737792   -1.127846   -2.716696
     51          1           0       -3.959825   -3.583218   -0.582831
     52          1           0       -5.201998   -3.314501   -1.919604
     53          1           0        1.250547    1.735233   -3.203642
     54          1           0        2.817759    2.512740   -2.863040
     55          1           0        1.364531    3.504649   -3.096931
     56          1           0        1.719366    4.607643   -0.769488
     57          1           0        3.212423    3.656759   -0.670257
     58          1           0        2.023756    3.569332    0.639922
     59          1           0       -3.309963    2.357004    3.820786
     60          1           0       -2.570954    3.545175    2.733202
     61          1           0       -3.996531    2.654547    2.210296
     62          6           0        5.440226   -0.047541    1.184396
     63          1           0        4.686958    0.050145    1.973255
     64          1           0        5.384418    0.847075    0.551417
     65          1           0        6.425300   -0.055911    1.664897
 ---------------------------------------------------------------------

 The electronic state is 1-A.
 Alpha  occ. eigenvalues --  -19.19779 -19.17033 -19.15078 -19.12967 -19.12488
 Alpha  occ. eigenvalues --  -10.26892 -10.26858 -10.26845 -10.26333 -10.26163
 Alpha  occ. eigenvalues --  -10.26016 -10.24839 -10.21256 -10.20639 -10.20528
 Alpha  occ. eigenvalues --  -10.20353 -10.20259 -10.19866 -10.19465 -10.19330
 Alpha  occ. eigenvalues --  -10.19108 -10.18820 -10.18771 -10.18553 -10.18434
 Alpha  occ. eigenvalues --  -10.18419 -10.18198 -10.18097 -10.16954 -10.16818
 Alpha  occ. eigenvalues --  -10.16149  -1.09107  -1.06427  -1.03300  -1.02250
 Alpha  occ. eigenvalues --   -1.02094  -0.86911  -0.83805  -0.82119  -0.81312
 Alpha  occ. eigenvalues --   -0.80088  -0.79367  -0.76807  -0.74004  -0.73075
 Alpha  occ. eigenvalues --   -0.72284  -0.71542  -0.70287  -0.69110  -0.68200
 Alpha  occ. eigenvalues --   -0.64788  -0.64029  -0.63409  -0.61838  -0.60742
 Alpha  occ. eigenvalues --   -0.59157  -0.58789  -0.56766  -0.55005  -0.53303
 Alpha  occ. eigenvalues --   -0.52879  -0.51604  -0.51088  -0.49780  -0.49472
 Alpha  occ. eigenvalues --   -0.48431  -0.47600  -0.47009  -0.46539  -0.45941
 Alpha  occ. eigenvalues --   -0.45016  -0.44227  -0.44081  -0.43323  -0.42833
 Alpha  occ. eigenvalues --   -0.42706  -0.42247  -0.42143  -0.41746  -0.41336
 Alpha  occ. eigenvalues --   -0.40948  -0.40725  -0.40470  -0.40088  -0.39822
 Alpha  occ. eigenvalues --   -0.39457  -0.39139  -0.38898  -0.38525  -0.38125
 Alpha  occ. eigenvalues --   -0.37677  -0.37469  -0.37225  -0.36958  -0.35998
 Alpha  occ. eigenvalues --   -0.35773  -0.35588  -0.35295  -0.34582  -0.34306
 Alpha  occ. eigenvalues --   -0.33813  -0.33096  -0.32932  -0.32694  -0.32349
 Alpha  occ. eigenvalues --   -0.31632  -0.31344  -0.30913  -0.28072  -0.27351
 Alpha  occ. eigenvalues --   -0.25788  -0.24457  -0.24295  -0.23371  -0.22682
 Alpha virt. eigenvalues --   -0.04141  -0.01588   0.01045   0.01219   0.05147
 Alpha virt. eigenvalues --    0.07079   0.07980   0.08731   0.09417   0.10281
 Alpha virt. eigenvalues --    0.10593   0.10988   0.11572   0.11929   0.12390

 Mulliken atomic charges:
              1
     1  C   -0.193225
     2  C    0.197297
     3  C   -0.196727
     4  C    0.313560
     5  C   -0.031513
     6  C   -0.329219
     7  C    0.200642
     8  C    0.402530
     9  C   -0.097758
    10  C    0.402059
    11  C    0.429170
    12  O   -0.465093
    13  C   -0.165707
    14  C   -0.243472
    15  C   -0.455810
    16  O   -0.468617
    17  C   -0.154963
    18  C    0.298346
    19  O   -0.535790
    20  C   -0.308894
    21  O   -0.670075
    22  C   -0.332270
    23  C    0.102965
    24  O   -0.585271
    25  C    0.188150
    26  C   -0.506148
    27  C   -0.393943
    28  C   -0.467231
    29  C   -0.461620
    30  H    0.147483
    31  H    0.146833
    32  C   -0.520963
    33  H    0.125676
    34  H    0.166684
    35  H    0.174179
    36  H    0.147398
    37  H    0.154502
    38  H    0.122720
    39  H    0.145995
    40  H    0.161459
    41  H    0.162554
    42  H    0.151040
    43  H    0.161854
    44  H    0.422280
    45  H    0.150247
    46  H    0.186847
    47  H    0.136112
    48  H    0.151139
    49  H    0.168285
    50  H    0.153906
    51  H    0.153479
    52  H    0.139064
    53  H    0.195996
    54  H    0.155663
    55  H    0.145091
    56  H    0.151690
    57  H    0.163526
    58  H    0.161919
    59  H    0.158698
    60  H    0.155191
    61  H    0.153966
    62  C   -0.452331
    63  H    0.157058
    64  H    0.134483
    65  H    0.138905
 Sum of Mulliken atomic charges =   0.00000

 Dipole moment (field-independent basis, Debye):
    X=             -3.1587    Y=              5.7268    Z=             -0.8977  Tot=              6.6015
 Quadrupole moment (field-independent basis, Debye-Ang):
   XX=           -177.4064   YY=           -184.5334   ZZ=           -185.3507
   XY=              6.4631   XZ=             -7.4288   YZ=              3.2867

 Normal termination of Gaussian 09 at Wed Mar 24 17:58:42 2021.
