 Gaussian 09, Revision B.01,
 Gaussian 09:  EM64L-G09RevB.01 12-Aug-2010

 ---------------------------------------
 # opt rb3lyp/6-31g(d) geom=connectivity
 ---------------------------------------

 -------------------
 Title Card Required
 -------------------
 Symbolic Z-matrix:
 Charge =  0 Multiplicity = 1

 SCF Done:  E(RB3LYP) =  -1387.30335900     A.U. after   16 cycles
 SCF Done:  E(RB3LYP) =  -1387.31620864     A.U. after   13 cycles
 SCF Done:  E(RB3LYP) =  -1387.31886584     A.U. after   13 cycles
 SCF Done:  E(RB3LYP) =  -1387.31837014     A.U. after   13 cycles
 SCF Done:  E(RB3LYP) =  -1387.31985004     A.U. after   13 cycles
 SCF Done:  E(RB3LYP) =  -1387.31990758     A.U. after   13 cycles
 SCF Done:  E(RB3LYP) =  -1387.32021228     A.U. after   12 cycles
 SCF Done:  E(RB3LYP) =  -1387.32033561     A.U. after   12 cycles
 SCF Done:  E(RB3LYP) =  -1387.32036059     A.U. after   12 cycles
 SCF Done:  E(RB3LYP) =  -1387.32036474     A.U. after   10 cycles
 SCF Done:  E(RB3LYP) =  -1387.32036419     A.U. after    8 cycles
 SCF Done:  E(RB3LYP) =  -1387.32036410     A.U. after    7 cycles
 SCF Done:  E(RB3LYP) =  -1387.32036436     A.U. after    7 cycles
 SCF Done:  E(RB3LYP) =  -1387.32036422     A.U. after    6 cycles
 Optimization completed.
    -- Stationary point found.

                         Standard orientation:
 ---------------------------------------------------------------------
 Center     Atomic      Atomic             Coordinates (Angstroms)
 Number     Number       Type             X           Y           Z
 ---------------------------------------------------------------------
      1          6           0       -1.578877    0.001610    3.155825
      2          6           0       -1.660476    1.248403    2.679696
      3          6           0       -1.750876    1.524188    1.194096
      4          6           0       -1.489794    0.309893    0.244495
      5          6           0       -1.068293   -1.055555    0.866561
      6          6           0       -1.605531   -1.239086    2.310507
      7          6           0       -0.462636    0.846824   -0.788242
      8          6           0        0.977473    0.643321   -0.368089
      9          6           0        1.432464   -0.442804    0.310258
     10          6           0        0.455358   -1.374544    0.880757
     11          6           0        2.906679   -0.633142    0.568240
     12          8           0        3.590924    0.308567    0.933362
     13          6           0        3.544186   -2.001926    0.302204
     14          6           0        4.663838   -1.840346   -0.749831
     15          6           0        4.095564   -2.576109    1.619479
     16          8           0        0.806455   -2.413634    1.435464
     17          6           0       -0.513093    2.388289   -0.766014
     18          6           0        0.892697    2.783974   -1.279290
     19          8           0        1.734820    1.657343   -0.788309
     20          6           0       -0.801285    2.665306    0.721540
     21          8           0       -0.630350    0.247799   -2.059618
     22          6           0       -1.775136   -2.066851   -0.075293
     23          6           0       -3.093265   -1.351055   -0.383726
     24          8           0       -2.705902    0.039341   -0.511118
     25          6           0       -3.848283   -1.828500   -1.605875
     26          6           0       -3.294483   -1.520591   -2.975116
     27          6           0       -4.971805   -2.534138   -1.441334
     28          6           0        0.986652    2.807173   -2.806388
     29          6           0        1.496267    4.050240   -0.678188
     30          1           0       -1.305244    2.776934   -1.413465
     31          1           0       -2.780144    1.835931    0.966021
     32          6           0       -1.727181    2.445994    3.595633
     33          1           0       -1.543128   -0.149137    4.234177
     34          1           0       -2.639850   -1.612572    2.272893
     35          1           0       -1.021174   -2.040034    2.772876
     36          1           0        2.779581   -2.682718   -0.084762
     37          1           0        5.407689   -1.137637   -0.355538
     38          1           0        5.167344   -2.810391   -0.858312
     39          1           0        4.604023   -3.529436    1.434206
     40          1           0        3.285350   -2.752433    2.332376
     41          1           0        4.814544   -1.880475    2.065304
     42          1           0       -1.232666    3.656016    0.889858
     43          1           0        0.129712    2.617840    1.297115
     44          1           0       -1.599424    0.149233   -2.133685
     45          1           0       -1.920386   -3.038464    0.403434
     46          1           0       -1.194201   -2.214684   -0.990882
     47          1           0       -3.766816   -1.436801    0.479142
     48          1           0       -3.370502   -0.447448   -3.196115
     49          1           0       -2.238925   -1.801466   -3.072441
     50          1           0       -3.855257   -2.050925   -3.750095
     51          1           0       -5.386872   -2.730393   -0.455712
     52          1           0       -5.514858   -2.949268   -2.286243
     53          1           0        0.567840    1.896495   -3.238303
     54          1           0        2.033510    2.901317   -3.112672
     55          1           0        0.436752    3.669691   -3.200316
     56          1           0        0.898124    4.921372   -0.968002
     57          1           0        2.514029    4.193426   -1.053939
     58          1           0        1.542874    4.004672    0.411977
     59          1           0       -1.725862    2.138861    4.645927
     60          1           0       -0.882354    3.130454    3.446384
     61          1           0       -2.640691    3.030750    3.415633
     62          6           0        4.175444   -1.361052   -2.121766
     63          1           0        3.736365   -0.358186   -2.064024
     64          1           0        3.415403   -2.036558   -2.533897
     65          1           0        5.004005   -1.316390   -2.837993
 ---------------------------------------------------------------------

 The electronic state is 1-A.
 Alpha  occ. eigenvalues --  -19.19786 -19.16823 -19.15957 -19.12705 -19.12250
 Alpha  occ. eigenvalues --  -10.27489 -10.27245 -10.26740 -10.26128 -10.25934
 Alpha  occ. eigenvalues --  -10.25915 -10.25102 -10.21489 -10.20833 -10.20666
 Alpha  occ. eigenvalues --  -10.20414 -10.19915 -10.19655 -10.19424 -10.19416
 Alpha  occ. eigenvalues --  -10.19220 -10.18898 -10.18859 -10.18801 -10.18548
 Alpha  occ. eigenvalues --  -10.18254 -10.18201 -10.17447 -10.16857 -10.16177
 Alpha  occ. eigenvalues --  -10.15718  -1.09442  -1.06040  -1.02983  -1.02659
 Alpha  occ. eigenvalues --   -1.02097  -0.86715  -0.83645  -0.82493  -0.81402
 Alpha  occ. eigenvalues --   -0.80278  -0.78908  -0.76737  -0.74301  -0.73203
 Alpha  occ. eigenvalues --   -0.71733  -0.71222  -0.70128  -0.69968  -0.67840
 Alpha  occ. eigenvalues --   -0.65224  -0.63598  -0.63043  -0.61519  -0.60637
 Alpha  occ. eigenvalues --   -0.59405  -0.58794  -0.57033  -0.54697  -0.53864
 Alpha  occ. eigenvalues --   -0.52695  -0.52091  -0.50647  -0.50486  -0.49471
 Alpha  occ. eigenvalues --   -0.48058  -0.47512  -0.46977  -0.46253  -0.45649
 Alpha  occ. eigenvalues --   -0.45034  -0.44433  -0.43930  -0.43718  -0.43470
 Alpha  occ. eigenvalues --   -0.42378  -0.42066  -0.41601  -0.41491  -0.41384
 Alpha  occ. eigenvalues --   -0.40913  -0.40700  -0.40272  -0.40205  -0.39738
 Alpha  occ. eigenvalues --   -0.39231  -0.39170  -0.38452  -0.38301  -0.37920
 Alpha  occ. eigenvalues --   -0.37705  -0.37413  -0.37203  -0.36804  -0.36580
 Alpha  occ. eigenvalues --   -0.36351  -0.35179  -0.34952  -0.34569  -0.34308
 Alpha  occ. eigenvalues --   -0.33840  -0.33554  -0.32931  -0.32639  -0.32140
 Alpha  occ. eigenvalues --   -0.31401  -0.31183  -0.30422  -0.28408  -0.27167
 Alpha  occ. eigenvalues --   -0.25748  -0.24650  -0.24131  -0.23444  -0.22534
 Alpha virt. eigenvalues --   -0.04935  -0.01221   0.00611   0.02162   0.05650
 Alpha virt. eigenvalues --    0.07128   0.08182   0.08807   0.09342   0.10034
 Alpha virt. eigenvalues --    0.10420   0.11223   0.11406   0.12231   0.12435

 Mulliken atomic charges:
              1
     1  C   -0.187870
     2  C    0.194545
     3  C   -0.190287
     4  C    0.329286
     5  C   -0.047397
     6  C   -0.338586
     7  C    0.185635
     8  C    0.406415
     9  C   -0.090879
    10  C    0.416502
    11  C    0.418824
    12  O   -0.464334
    13  C   -0.128752
    14  C   -0.250056
    15  C   -0.459044
    16  O   -0.512588
    17  C   -0.163220
    18  C    0.300793
    19  O   -0.512290
    20  C   -0.323709
    21  O   -0.670362
    22  C   -0.311196
    23  C    0.076924
    24  O   -0.597650
    25  C    0.240084
    26  C   -0.548044
    27  C   -0.403780
    28  C   -0.469379
    29  C   -0.457395
    30  H    0.143856
    31  H    0.164620
    32  C   -0.519751
    33  H    0.122340
    34  H    0.146085
    35  H    0.186192
    36  H    0.137218
    37  H    0.152005
    38  H    0.127380
    39  H    0.136327
    40  H    0.168402
    41  H    0.155190
    42  H    0.152148
    43  H    0.171101
    44  H    0.433656
    45  H    0.169096
    46  H    0.164201
    47  H    0.136916
    48  H    0.166645
    49  H    0.175074
    50  H    0.161901
    51  H    0.142113
    52  H    0.142237
    53  H    0.190978
    54  H    0.160003
    55  H    0.143756
    56  H    0.148685
    57  H    0.167892
    58  H    0.166894
    59  H    0.158095
    60  H    0.158729
    61  H    0.150564
    62  C   -0.459575
    63  H    0.157726
    64  H    0.139136
    65  H    0.139977
 Sum of Mulliken atomic charges =   0.00000

 Dipole moment (field-independent basis, Debye):
    X=             -4.7198    Y=              2.3876    Z=             -1.7199  Tot=              5.5619
 Quadrupole moment (field-independent basis, Debye-Ang):
   XX=           -190.6834   YY=           -175.1579   ZZ=           -181.1170
   XY=              2.0142   XZ=             -4.4292   YZ=              1.5808

 Normal termination of Gaussian 09 at Wed Mar 24 15:05:20 2021.
