 Gaussian 09, Revision B.01,
 Gaussian 09:  EM64L-G09RevB.01 12-Aug-2010

 ---------------------------------------
 # opt rb3lyp/6-31g(d) geom=connectivity
 ---------------------------------------

 -------------------
 Title Card Required
 -------------------
 Symbolic Z-matrix:
 Charge =  0 Multiplicity = 1

 SCF Done:  E(RB3LYP) =  -1387.30224936     A.U. after   16 cycles
 SCF Done:  E(RB3LYP) =  -1387.31581416     A.U. after   13 cycles
 SCF Done:  E(RB3LYP) =  -1387.31731429     A.U. after   13 cycles
 SCF Done:  E(RB3LYP) =  -1387.31811774     A.U. after   13 cycles
 SCF Done:  E(RB3LYP) =  -1387.31769597     A.U. after   13 cycles
 SCF Done:  E(RB3LYP) =  -1387.31847620     A.U. after   12 cycles
 SCF Done:  E(RB3LYP) =  -1387.31871582     A.U. after   12 cycles
 SCF Done:  E(RB3LYP) =  -1387.31876603     A.U. after   12 cycles
 SCF Done:  E(RB3LYP) =  -1387.31877658     A.U. after   13 cycles
 SCF Done:  E(RB3LYP) =  -1387.31881513     A.U. after   11 cycles
 SCF Done:  E(RB3LYP) =  -1387.31882263     A.U. after    7 cycles
 SCF Done:  E(RB3LYP) =  -1387.31882287     A.U. after    8 cycles
 SCF Done:  E(RB3LYP) =  -1387.31882298     A.U. after    8 cycles
 SCF Done:  E(RB3LYP) =  -1387.31882309     A.U. after    8 cycles
 SCF Done:  E(RB3LYP) =  -1387.31882321     A.U. after    8 cycles
 SCF Done:  E(RB3LYP) =  -1387.31882330     A.U. after    7 cycles
 SCF Done:  E(RB3LYP) =  -1387.31882339     A.U. after    7 cycles
 SCF Done:  E(RB3LYP) =  -1387.31882356     A.U. after    7 cycles
 SCF Done:  E(RB3LYP) =  -1387.31882367     A.U. after    7 cycles
 SCF Done:  E(RB3LYP) =  -1387.31882370     A.U. after    6 cycles
 Optimization completed.
    -- Stationary point found.

                         Standard orientation:
 ---------------------------------------------------------------------
 Center     Atomic      Atomic             Coordinates (Angstroms)
 Number     Number       Type             X           Y           Z
 ---------------------------------------------------------------------
      1          6           0        1.914870    1.252681   -2.687475
      2          6           0        2.323409    2.119047   -1.752411
      3          6           0        1.805608    1.989946   -0.337443
      4          6           0        1.476582    0.537927    0.145789
      5          6           0        1.299228   -0.526189   -0.977043
      6          6           0        0.996262    0.101789   -2.371367
      7          6           0        0.228291    0.726542    1.087748
      8          6           0       -1.068651    0.256427    0.458434
      9          6           0       -1.166930   -0.862148   -0.298153
     10          6           0        0.117771   -1.500383   -0.699026
     11          6           0       -2.435953   -1.401470   -0.891103
     12          8           0       -2.443424   -1.786993   -2.049463
     13          6           0       -3.666748   -1.532011    0.008325
     14          6           0       -4.975971   -1.464168   -0.793048
     15          6           0       -3.531161   -2.871339    0.768919
     16          8           0        0.215630   -2.691298   -0.931916
     17          6           0       -0.048131    2.239438    1.227464
     18          6           0       -1.575017    2.302293    1.464085
     19          8           0       -2.074577    1.098222    0.748412
     20          6           0        0.505458    2.802119   -0.092049
     21          8           0        0.385272    0.048757    2.319624
     22          6           0        2.652613   -1.266460   -1.006713
     23          6           0        3.332054   -0.973655    0.350998
     24          8           0        2.531118    0.045892    0.983371
     25          6           0        3.505651   -2.203527    1.225105
     26          6           0        4.762574   -2.986350    0.933861
     27          6           0        2.613447   -2.597581    2.136387
     28          6           0       -1.938019    2.140773    2.942303
     29          6           0       -2.299926    3.491764    0.842431
     30          1           0        0.496759    2.650840    2.082686
     31          1           0        2.563808    2.358078    0.366499
     32          6           0        3.242877    3.275324   -2.045609
     33          1           0        2.248402    1.367755   -3.717674
     34          1           0        1.091500   -0.688891   -3.123724
     35          1           0       -0.054358    0.420515   -2.415758
     36          1           0       -3.647198   -0.720263    0.744211
     37          1           0       -4.950681   -2.235557   -1.571161
     38          1           0       -5.803800   -1.718592   -0.117461
     39          1           0       -4.360232   -2.988735    1.475851
     40          1           0       -2.592942   -2.923092    1.331731
     41          1           0       -3.552224   -3.714144    0.069263
     42          1           0        0.691601    3.879986   -0.055590
     43          1           0       -0.193699    2.623262   -0.917497
     44          1           0        1.351818   -0.093563    2.395753
     45          1           0        3.269341   -0.888589   -1.826034
     46          1           0        2.476273   -2.333148   -1.163330
     47          1           0        4.325236   -0.533644    0.184025
     48          1           0        4.805205   -3.294913   -0.120086
     49          1           0        5.661252   -2.382136    1.120796
     50          1           0        4.821935   -3.888772    1.548711
     51          1           0        1.689689   -2.062461    2.322419
     52          1           0        2.771668   -3.503747    2.714994
     53          1           0       -1.417929    1.285162    3.379257
     54          1           0       -3.018181    1.997213    3.049386
     55          1           0       -1.655112    3.041667    3.498765
     56          1           0       -1.957438    4.422650    1.307469
     57          1           0       -3.378343    3.404524    1.008824
     58          1           0       -2.126020    3.556875   -0.234585
     59          1           0        3.522199    3.309703   -3.103461
     60          1           0        2.775541    4.236323   -1.789236
     61          1           0        4.164679    3.209717   -1.450911
     62          6           0       -5.238493   -0.096631   -1.433104
     63          1           0       -4.463185    0.148670   -2.166472
     64          1           0       -5.254502    0.700209   -0.678847
     65          1           0       -6.203387   -0.084481   -1.952857
 ---------------------------------------------------------------------

 The electronic state is 1-A.
 Alpha  occ. eigenvalues --  -19.19869 -19.16867 -19.15384 -19.13004 -19.12409
 Alpha  occ. eigenvalues --  -10.26995 -10.26946 -10.26939 -10.26296 -10.26232
 Alpha  occ. eigenvalues --  -10.26021 -10.24736 -10.21271 -10.20629 -10.20473
 Alpha  occ. eigenvalues --  -10.20334 -10.19869 -10.19588 -10.19480 -10.19384
 Alpha  occ. eigenvalues --  -10.19099 -10.18924 -10.18716 -10.18531 -10.18527
 Alpha  occ. eigenvalues --  -10.18466 -10.18085 -10.17145 -10.16979 -10.16825
 Alpha  occ. eigenvalues --  -10.16158  -1.09184  -1.06224  -1.03319  -1.02335
 Alpha  occ. eigenvalues --   -1.02042  -0.87049  -0.83898  -0.82053  -0.81188
 Alpha  occ. eigenvalues --   -0.79896  -0.79359  -0.76825  -0.73885  -0.73098
 Alpha  occ. eigenvalues --   -0.72333  -0.71573  -0.70352  -0.68640  -0.68243
 Alpha  occ. eigenvalues --   -0.64833  -0.64020  -0.63213  -0.61900  -0.60769
 Alpha  occ. eigenvalues --   -0.59125  -0.58845  -0.56617  -0.54721  -0.53570
 Alpha  occ. eigenvalues --   -0.53027  -0.51732  -0.50895  -0.49792  -0.49076
 Alpha  occ. eigenvalues --   -0.48307  -0.47409  -0.47040  -0.46493  -0.46037
 Alpha  occ. eigenvalues --   -0.44909  -0.44376  -0.44196  -0.43194  -0.42819
 Alpha  occ. eigenvalues --   -0.42409  -0.42281  -0.41857  -0.41541  -0.41260
 Alpha  occ. eigenvalues --   -0.40991  -0.40808  -0.40513  -0.40071  -0.39881
 Alpha  occ. eigenvalues --   -0.39386  -0.39218  -0.38850  -0.38550  -0.38071
 Alpha  occ. eigenvalues --   -0.37649  -0.37525  -0.37287  -0.36276  -0.36067
 Alpha  occ. eigenvalues --   -0.35768  -0.35456  -0.35227  -0.34747  -0.34507
 Alpha  occ. eigenvalues --   -0.33966  -0.33572  -0.33026  -0.32703  -0.32077
 Alpha  occ. eigenvalues --   -0.31714  -0.31419  -0.30920  -0.27779  -0.27397
 Alpha  occ. eigenvalues --   -0.24761  -0.24341  -0.24292  -0.23466  -0.22605
 Alpha virt. eigenvalues --   -0.04360  -0.01665   0.01098   0.02012   0.05188
 Alpha virt. eigenvalues --    0.07096   0.08145   0.08602   0.09334   0.10170
 Alpha virt. eigenvalues --    0.10585   0.11004   0.11075   0.12015   0.12299

 Mulliken atomic charges:
              1
     1  C   -0.197924
     2  C    0.203775
     3  C   -0.203425
     4  C    0.325315
     5  C   -0.046033
     6  C   -0.324199
     7  C    0.194922
     8  C    0.398305
     9  C   -0.097928
    10  C    0.416805
    11  C    0.429728
    12  O   -0.465287
    13  C   -0.165685
    14  C   -0.243229
    15  C   -0.455831
    16  O   -0.466358
    17  C   -0.155592
    18  C    0.299327
    19  O   -0.533489
    20  C   -0.306712
    21  O   -0.663520
    22  C   -0.337341
    23  C    0.106329
    24  O   -0.590791
    25  C    0.200982
    26  C   -0.518150
    27  C   -0.408019
    28  C   -0.466473
    29  C   -0.460848
    30  H    0.147111
    31  H    0.146533
    32  C   -0.520883
    33  H    0.126034
    34  H    0.169126
    35  H    0.169270
    36  H    0.147408
    37  H    0.154511
    38  H    0.122536
    39  H    0.145984
    40  H    0.160022
    41  H    0.162812
    42  H    0.151553
    43  H    0.160697
    44  H    0.430425
    45  H    0.149612
    46  H    0.197450
    47  H    0.130129
    48  H    0.161378
    49  H    0.153902
    50  H    0.161011
    51  H    0.148476
    52  H    0.136924
    53  H    0.193396
    54  H    0.156171
    55  H    0.145592
    56  H    0.151977
    57  H    0.163613
    58  H    0.161967
    59  H    0.158056
    60  H    0.154324
    61  H    0.156517
    62  C   -0.452580
    63  H    0.157073
    64  H    0.134348
    65  H    0.138871
 Sum of Mulliken atomic charges =   0.00000

 Dipole moment (field-independent basis, Debye):
    X=              2.5935    Y=              5.4964    Z=              1.7037  Tot=              6.3118
 Quadrupole moment (field-independent basis, Debye-Ang):
   XX=           -175.2204   YY=           -181.7591   ZZ=           -188.0803
   XY=             -5.3724   XZ=             -9.9735   YZ=             -4.3508

 Normal termination of Gaussian 09 at Wed Mar 24 16:33:45 2021.
