 Gaussian 09, Revision B.01,
 Gaussian 09:  EM64L-G09RevB.01 12-Aug-2010

 ---------------------------------------
 # opt rb3lyp/6-31g(d) geom=connectivity
 ---------------------------------------

 -------------------
 Title Card Required
 -------------------
 Symbolic Z-matrix:
 Charge =  0 Multiplicity = 1

 SCF Done:  E(RB3LYP) =  -1387.30204695     A.U. after   16 cycles
 SCF Done:  E(RB3LYP) =  -1387.31461183     A.U. after   13 cycles
 SCF Done:  E(RB3LYP) =  -1387.31711189     A.U. after   13 cycles
 SCF Done:  E(RB3LYP) =  -1387.31689651     A.U. after   13 cycles
 SCF Done:  E(RB3LYP) =  -1387.31861318     A.U. after   13 cycles
 SCF Done:  E(RB3LYP) =  -1387.31898941     A.U. after   12 cycles
 SCF Done:  E(RB3LYP) =  -1387.31902247     A.U. after   13 cycles
 SCF Done:  E(RB3LYP) =  -1387.31933227     A.U. after   13 cycles
 SCF Done:  E(RB3LYP) =  -1387.31950402     A.U. after   12 cycles
 SCF Done:  E(RB3LYP) =  -1387.31960170     A.U. after   13 cycles
 SCF Done:  E(RB3LYP) =  -1387.31982639     A.U. after   11 cycles
 SCF Done:  E(RB3LYP) =  -1387.31982342     A.U. after   10 cycles
 SCF Done:  E(RB3LYP) =  -1387.31983721     A.U. after   10 cycles
 SCF Done:  E(RB3LYP) =  -1387.31984070     A.U. after   10 cycles
 SCF Done:  E(RB3LYP) =  -1387.31984197     A.U. after   10 cycles
 SCF Done:  E(RB3LYP) =  -1387.31984237     A.U. after    8 cycles
 SCF Done:  E(RB3LYP) =  -1387.31984259     A.U. after    8 cycles
 SCF Done:  E(RB3LYP) =  -1387.31984277     A.U. after    8 cycles
 SCF Done:  E(RB3LYP) =  -1387.31984278     A.U. after    7 cycles
 SCF Done:  E(RB3LYP) =  -1387.31984282     A.U. after    6 cycles
 Optimization completed.
    -- Stationary point found.

                         Standard orientation:
 ---------------------------------------------------------------------
 Center     Atomic      Atomic             Coordinates (Angstroms)
 Number     Number       Type             X           Y           Z
 ---------------------------------------------------------------------
      1          6           0       -1.904512   -0.020950    2.845490
      2          6           0       -2.590010    0.911952    2.173113
      3          6           0       -2.156286    1.311788    0.781401
      4          6           0       -1.409931    0.215570   -0.047638
      5          6           0       -0.823012   -0.995791    0.746590
      6          6           0       -0.692902   -0.706680    2.271919
      7          6           0       -0.351337    1.002636   -0.876748
      8          6           0        1.057674    0.889722   -0.301391
      9          6           0        1.593369   -0.298064    0.119699
     10          6           0        0.615109   -1.398508    0.279894
     11          6           0        3.063981   -0.424542    0.389131
     12          8           0        3.741593    0.584154    0.537612
     13          6           0        3.717183   -1.809409    0.493961
     14          6           0        5.169150   -1.768122   -0.014702
     15          6           0        3.658683   -2.264158    1.968648
     16          8           0        0.901689   -2.587464    0.219627
     17          6           0       -0.613255    2.511294   -0.683338
     18          6           0        0.787601    3.133284   -0.861564
     19          8           0        1.686682    2.055189   -0.366915
     20          6           0       -1.230657    2.556637    0.728371
     21          8           0       -0.296966    0.568196   -2.219812
     22          6           0       -1.824174   -2.146990    0.460611
     23          6           0       -2.933501   -1.524587   -0.392176
     24          8           0       -2.312266   -0.364442   -0.999168
     25          6           0       -3.583153   -2.349750   -1.481600
     26          6           0       -4.514621   -1.586616   -2.392363
     27          6           0       -3.402896   -3.668764   -1.591701
     28          6           0        1.138012    3.381357   -2.330653
     29          6           0        1.097410    4.357129   -0.005677
     30          1           0       -1.316196    2.884313   -1.433881
     31          1           0       -3.047444    1.549082    0.184251
     32          6           0       -3.781848    1.629723    2.751247
     33          1           0       -2.202866   -0.286714    3.858550
     34          1           0       -0.506841   -1.657979    2.782817
     35          1           0        0.199547   -0.091347    2.454207
     36          1           0        3.137311   -2.520492   -0.099334
     37          1           0        5.721780   -1.007538    0.548014
     38          1           0        5.632975   -2.737342    0.213769
     39          1           0        4.124825   -3.250072    2.076541
     40          1           0        2.627842   -2.345743    2.327814
     41          1           0        4.197376   -1.558181    2.611551
     42          1           0       -1.773566    3.485679    0.927385
     43          1           0       -0.452868    2.467354    1.496213
     44          1           0       -1.078155   -0.011708   -2.329462
     45          1           0       -2.227542   -2.575554    1.381837
     46          1           0       -1.294261   -2.939659   -0.070910
     47          1           0       -3.734946   -1.148321    0.265282
     48          1           0       -5.307308   -1.089065   -1.816500
     49          1           0       -3.980957   -0.797620   -2.934377
     50          1           0       -4.988094   -2.249475   -3.122459
     51          1           0       -2.748139   -4.230634   -0.933827
     52          1           0       -3.922557   -4.241377   -2.355695
     53          1           0        0.918632    2.501531   -2.939784
     54          1           0        2.201218    3.624419   -2.423143
     55          1           0        0.556048    4.226456   -2.715947
     56          1           0        0.452526    5.191731   -0.301960
     57          1           0        2.138930    4.660012   -0.149905
     58          1           0        0.946267    4.160154    1.058494
     59          1           0       -4.005544    1.285598    3.765908
     60          1           0       -3.615129    2.714974    2.793254
     61          1           0       -4.677256    1.476235    2.132918
     62          6           0        5.293075   -1.486826   -1.516093
     63          1           0        4.895063   -0.497691   -1.765965
     64          1           0        4.746916   -2.231943   -2.108220
     65          1           0        6.341665   -1.512156   -1.834761
 ---------------------------------------------------------------------

 The electronic state is 1-A.
 Alpha  occ. eigenvalues --  -19.19957 -19.17179 -19.15200 -19.13233 -19.11314
 Alpha  occ. eigenvalues --  -10.27431 -10.27282 -10.26634 -10.26227 -10.26072
 Alpha  occ. eigenvalues --  -10.25641 -10.25006 -10.21524 -10.20710 -10.20609
 Alpha  occ. eigenvalues --  -10.20448 -10.20380 -10.20168 -10.20002 -10.19321
 Alpha  occ. eigenvalues --  -10.19058 -10.18997 -10.18996 -10.18639 -10.18574
 Alpha  occ. eigenvalues --  -10.18311 -10.18173 -10.16946 -10.16468 -10.16050
 Alpha  occ. eigenvalues --  -10.15402  -1.09608  -1.06627  -1.03294  -1.02408
 Alpha  occ. eigenvalues --   -1.01363  -0.87124  -0.83779  -0.82186  -0.81379
 Alpha  occ. eigenvalues --   -0.80172  -0.78558  -0.76761  -0.74153  -0.73151
 Alpha  occ. eigenvalues --   -0.72236  -0.71032  -0.70105  -0.69194  -0.68298
 Alpha  occ. eigenvalues --   -0.64985  -0.63998  -0.63207  -0.61562  -0.60814
 Alpha  occ. eigenvalues --   -0.59214  -0.58504  -0.56847  -0.54680  -0.53466
 Alpha  occ. eigenvalues --   -0.52688  -0.51657  -0.51288  -0.49920  -0.49566
 Alpha  occ. eigenvalues --   -0.48135  -0.47275  -0.47002  -0.46617  -0.46060
 Alpha  occ. eigenvalues --   -0.45243  -0.44365  -0.44087  -0.43464  -0.42832
 Alpha  occ. eigenvalues --   -0.42485  -0.41865  -0.41797  -0.41518  -0.41270
 Alpha  occ. eigenvalues --   -0.40816  -0.40611  -0.40350  -0.39965  -0.39884
 Alpha  occ. eigenvalues --   -0.39379  -0.39191  -0.38931  -0.38481  -0.38150
 Alpha  occ. eigenvalues --   -0.37615  -0.37255  -0.37044  -0.36696  -0.36353
 Alpha  occ. eigenvalues --   -0.35882  -0.35287  -0.34851  -0.34358  -0.34192
 Alpha  occ. eigenvalues --   -0.33746  -0.33217  -0.32929  -0.32533  -0.31858
 Alpha  occ. eigenvalues --   -0.31409  -0.30946  -0.30489  -0.28258  -0.27378
 Alpha  occ. eigenvalues --   -0.25901  -0.24585  -0.24222  -0.23407  -0.21981
 Alpha virt. eigenvalues --   -0.04883  -0.01115   0.00911   0.00951   0.05700
 Alpha virt. eigenvalues --    0.07409   0.08182   0.08593   0.09530   0.09980
 Alpha virt. eigenvalues --    0.10495   0.11374   0.11666   0.11850   0.12256

 Mulliken atomic charges:
              1
     1  C   -0.194101
     2  C    0.199218
     3  C   -0.198837
     4  C    0.315199
     5  C   -0.024753
     6  C   -0.330735
     7  C    0.192481
     8  C    0.400344
     9  C   -0.069532
    10  C    0.381730
    11  C    0.410972
    12  O   -0.479527
    13  C   -0.152449
    14  C   -0.241796
    15  C   -0.459001
    16  O   -0.489601
    17  C   -0.151952
    18  C    0.290642
    19  O   -0.483378
    20  C   -0.310730
    21  O   -0.666435
    22  C   -0.336435
    23  C    0.104891
    24  O   -0.584445
    25  C    0.187447
    26  C   -0.506188
    27  C   -0.393266
    28  C   -0.468233
    29  C   -0.460382
    30  H    0.148478
    31  H    0.147427
    32  C   -0.521327
    33  H    0.125642
    34  H    0.161678
    35  H    0.164727
    36  H    0.164145
    37  H    0.149189
    38  H    0.120280
    39  H    0.147284
    40  H    0.147665
    41  H    0.150764
    42  H    0.152222
    43  H    0.162841
    44  H    0.422924
    45  H    0.148140
    46  H    0.190373
    47  H    0.135517
    48  H    0.151075
    49  H    0.168905
    50  H    0.154300
    51  H    0.152379
    52  H    0.139481
    53  H    0.195182
    54  H    0.164275
    55  H    0.144265
    56  H    0.149523
    57  H    0.171584
    58  H    0.161703
    59  H    0.158794
    60  H    0.156699
    61  H    0.155143
    62  C   -0.453841
    63  H    0.158013
    64  H    0.137190
    65  H    0.136214
 Sum of Mulliken atomic charges =   0.00000

 Dipole moment (field-independent basis, Debye):
    X=             -5.8435    Y=              2.6408    Z=              0.9125  Tot=              6.4772
 Quadrupole moment (field-independent basis, Debye-Ang):
   XX=           -189.9835   YY=           -175.8063   ZZ=           -181.5397
   XY=             -2.2556   XZ=             -1.6476   YZ=             -1.9816

 Normal termination of Gaussian 09 at Wed Mar 24 15:23:34 2021.
