 Gaussian 09, Revision B.01,
 Gaussian 09:  EM64L-G09RevB.01 12-Aug-2010

 ---------------------------------------
 # opt rb3lyp/6-31g(d) geom=connectivity
 ---------------------------------------

 -------------------
 Title Card Required
 -------------------
 Symbolic Z-matrix:
 Charge =  0 Multiplicity = 1

 SCF Done:  E(RB3LYP) =  -1387.30399655     A.U. after   16 cycles
 SCF Done:  E(RB3LYP) =  -1387.31649054     A.U. after   13 cycles
 SCF Done:  E(RB3LYP) =  -1387.31829973     A.U. after   13 cycles
 SCF Done:  E(RB3LYP) =  -1387.31506998     A.U. after   14 cycles
 SCF Done:  E(RB3LYP) =  -1387.31886356     A.U. after   13 cycles
 SCF Done:  E(RB3LYP) =  -1387.31918640     A.U. after   12 cycles
 SCF Done:  E(RB3LYP) =  -1387.31899627     A.U. after   13 cycles
 SCF Done:  E(RB3LYP) =  -1387.31923108     A.U. after   11 cycles
 SCF Done:  E(RB3LYP) =  -1387.31924925     A.U. after   10 cycles
 SCF Done:  E(RB3LYP) =  -1387.31925190     A.U. after   10 cycles
 SCF Done:  E(RB3LYP) =  -1387.31925135     A.U. after   10 cycles
 SCF Done:  E(RB3LYP) =  -1387.31925157     A.U. after    8 cycles
 SCF Done:  E(RB3LYP) =  -1387.31925166     A.U. after    8 cycles
 SCF Done:  E(RB3LYP) =  -1387.31925180     A.U. after    7 cycles
 SCF Done:  E(RB3LYP) =  -1387.31925169     A.U. after    7 cycles
 SCF Done:  E(RB3LYP) =  -1387.31925146     A.U. after    8 cycles
 SCF Done:  E(RB3LYP) =  -1387.31925124     A.U. after    7 cycles
 Optimization completed.
    -- Stationary point found.

                         Standard orientation:
 ---------------------------------------------------------------------
 Center     Atomic      Atomic             Coordinates (Angstroms)
 Number     Number       Type             X           Y           Z
 ---------------------------------------------------------------------
      1          6           0       -1.448508    0.271702    3.219031
      2          6           0       -1.312776    1.479788    2.660884
      3          6           0       -1.464535    1.681274    1.167745
      4          6           0       -1.493180    0.382667    0.301660
      5          6           0       -1.265321   -0.987513    0.996884
      6          6           0       -1.774973   -0.983984    2.460469
      7          6           0       -0.477806    0.658107   -0.843344
      8          6           0        0.933312    0.239536   -0.496275
      9          6           0        1.262682   -0.797355    0.305704
     10          6           0        0.190929   -1.529009    1.000681
     11          6           0        2.697433   -1.153378    0.626626
     12          8           0        3.086013   -1.137809    1.779420
     13          6           0        3.589722   -1.592348   -0.534714
     14          6           0        5.081385   -1.388504   -0.230954
     15          6           0        3.263262   -3.074352   -0.830821
     16          8           0        0.413723   -2.579907    1.586918
     17          6           0       -0.263571    2.184525   -0.936917
     18          6           0        1.143007    2.297293   -1.573171
     19          8           0        1.826221    1.084698   -1.042325
     20          6           0       -0.376708    2.603795    0.542597
     21          8           0       -0.845152    0.011564   -2.047568
     22          6           0       -2.137926   -1.933335    0.129213
     23          6           0       -3.341755   -1.061729   -0.211349
     24          8           0       -2.795486    0.284337   -0.330862
     25          6           0       -4.141413   -1.364073   -1.461795
     26          6           0       -5.257580   -0.388754   -1.749916
     27          6           0       -3.908931   -2.432215   -2.231079
     28          6           0        1.117240    2.189938   -3.099652
     29          6           0        1.986640    3.488527   -1.127258
     30          1           0       -1.027628    2.664587   -1.556234
     31          1           0       -2.440065    2.155033    0.986370
     32          6           0       -1.069225    2.715861    3.491503
     33          1           0       -1.362191    0.178051    4.300708
     34          1           0       -2.865542   -1.132217    2.471295
     35          1           0       -1.348358   -1.861183    2.956130
     36          1           0        3.310082   -1.001426   -1.416799
     37          1           0        5.322048   -1.911429    0.701911
     38          1           0        5.662746   -1.873006   -1.027095
     39          1           0        3.827103   -3.415705   -1.706098
     40          1           0        2.197277   -3.222912   -1.032627
     41          1           0        3.533662   -3.705535    0.022681
     42          1           0        0.576715    2.431188    1.053938
     43          1           0       -0.617781    3.663820    0.663203
     44          1           0       -1.822570    0.052526   -2.050650
     45          1           0       -1.598323   -2.210840   -0.780560
     46          1           0       -2.404755   -2.845715    0.668708
     47          1           0       -4.044554   -1.046632    0.636691
     48          1           0       -4.870982    0.631719   -1.851571
     49          1           0       -5.794457   -0.652928   -2.665706
     50          1           0       -5.980832   -0.368391   -0.922999
     51          1           0       -4.520777   -2.635285   -3.106501
     52          1           0       -3.120246   -3.147333   -2.020888
     53          1           0        2.138114    2.087983   -3.482291
     54          1           0        0.680161    3.097919   -3.530991
     55          1           0        0.526900    1.329878   -3.420922
     56          1           0        2.107207    3.523834   -0.042130
     57          1           0        2.982510    3.432513   -1.578133
     58          1           0        1.516050    4.421691   -1.456308
     59          1           0       -1.047207    2.474718    4.558620
     60          1           0       -0.118691    3.203650    3.239765
     61          1           0       -1.858494    3.464295    3.330103
     62          6           0        5.496229    0.082390   -0.116816
     63          1           0        6.573371    0.172394    0.065040
     64          1           0        5.265104    0.634568   -1.036380
     65          1           0        4.976053    0.573971    0.711444
 ---------------------------------------------------------------------

 The electronic state is 1-A.
 Alpha  occ. eigenvalues --  -19.19668 -19.16656 -19.15780 -19.12651 -19.12413
 Alpha  occ. eigenvalues --  -10.27037 -10.26906 -10.26813 -10.26399 -10.25771
 Alpha  occ. eigenvalues --  -10.25723 -10.25114 -10.21201 -10.20783 -10.20637
 Alpha  occ. eigenvalues --  -10.20298 -10.19879 -10.19428 -10.19240 -10.19164
 Alpha  occ. eigenvalues --  -10.19084 -10.18891 -10.18877 -10.18706 -10.18399
 Alpha  occ. eigenvalues --  -10.18319 -10.18231 -10.17996 -10.17084 -10.16826
 Alpha  occ. eigenvalues --  -10.16045  -1.09054  -1.05844  -1.03118  -1.02416
 Alpha  occ. eigenvalues --   -1.02063  -0.86613  -0.83670  -0.82382  -0.81342
 Alpha  occ. eigenvalues --   -0.80167  -0.79430  -0.76685  -0.74219  -0.73118
 Alpha  occ. eigenvalues --   -0.72065  -0.71337  -0.70059  -0.69472  -0.67784
 Alpha  occ. eigenvalues --   -0.64846  -0.64147  -0.63075  -0.61787  -0.60523
 Alpha  occ. eigenvalues --   -0.59309  -0.58951  -0.56831  -0.54983  -0.53318
 Alpha  occ. eigenvalues --   -0.52804  -0.52060  -0.50448  -0.50297  -0.49198
 Alpha  occ. eigenvalues --   -0.48410  -0.47899  -0.46603  -0.46303  -0.45703
 Alpha  occ. eigenvalues --   -0.45210  -0.44410  -0.43541  -0.43331  -0.43126
 Alpha  occ. eigenvalues --   -0.42839  -0.42054  -0.41837  -0.41613  -0.41302
 Alpha  occ. eigenvalues --   -0.40870  -0.40548  -0.40465  -0.40249  -0.39965
 Alpha  occ. eigenvalues --   -0.39168  -0.38996  -0.38347  -0.38185  -0.37702
 Alpha  occ. eigenvalues --   -0.37527  -0.37432  -0.37351  -0.36912  -0.36808
 Alpha  occ. eigenvalues --   -0.36233  -0.35662  -0.35097  -0.34571  -0.34324
 Alpha  occ. eigenvalues --   -0.33732  -0.33489  -0.32784  -0.32700  -0.31891
 Alpha  occ. eigenvalues --   -0.31730  -0.31174  -0.30988  -0.28081  -0.26653
 Alpha  occ. eigenvalues --   -0.26317  -0.24581  -0.24059  -0.23269  -0.22666
 Alpha virt. eigenvalues --   -0.04487  -0.01238   0.00349   0.02346   0.05591
 Alpha virt. eigenvalues --    0.07254   0.08534   0.08944   0.09225   0.10383
 Alpha virt. eigenvalues --    0.10758   0.10981   0.11163   0.11790   0.12495

 Mulliken atomic charges:
              1
     1  C   -0.184273
     2  C    0.193608
     3  C   -0.188721
     4  C    0.324091
     5  C   -0.055707
     6  C   -0.335290
     7  C    0.203778
     8  C    0.395426
     9  C   -0.097401
    10  C    0.434350
    11  C    0.425780
    12  O   -0.447264
    13  C   -0.161225
    14  C   -0.243738
    15  C   -0.454257
    16  O   -0.498016
    17  C   -0.163905
    18  C    0.305169
    19  O   -0.538220
    20  C   -0.322389
    21  O   -0.658929
    22  C   -0.324135
    23  C    0.096026
    24  O   -0.591710
    25  C    0.183263
    26  C   -0.508176
    27  C   -0.393752
    28  C   -0.468351
    29  C   -0.459705
    30  H    0.143593
    31  H    0.163332
    32  C   -0.519406
    33  H    0.124241
    34  H    0.145451
    35  H    0.186754
    36  H    0.144023
    37  H    0.154184
    38  H    0.122812
    39  H    0.146700
    40  H    0.156305
    41  H    0.164427
    42  H    0.168183
    43  H    0.150937
    44  H    0.413803
    45  H    0.167680
    46  H    0.168966
    47  H    0.138524
    48  H    0.170649
    49  H    0.154281
    50  H    0.156597
    51  H    0.142051
    52  H    0.152979
    53  H    0.155316
    54  H    0.143608
    55  H    0.193321
    56  H    0.163580
    57  H    0.163691
    58  H    0.150942
    59  H    0.158954
    60  H    0.157653
    61  H    0.149043
    62  C   -0.451603
    63  H    0.137950
    64  H    0.134092
    65  H    0.160060
 Sum of Mulliken atomic charges =   0.00000

 Dipole moment (field-independent basis, Debye):
    X=             -3.7948    Y=              4.0313    Z=             -2.9555  Tot=              6.2759
 Quadrupole moment (field-independent basis, Debye-Ang):
   XX=           -181.2642   YY=           -178.8497   ZZ=           -186.6722
   XY=              6.0807   XZ=             -7.7912   YZ=              5.0923

 Normal termination of Gaussian 09 at Wed Mar 24 14:19:20 2021.
