 Gaussian 09, Revision B.01,
 Gaussian 09:  EM64L-G09RevB.01 12-Aug-2010

 ---------------------------------------
 # opt rb3lyp/6-31g(d) geom=connectivity
 ---------------------------------------

 -------------------
 Title Card Required
 -------------------
 Symbolic Z-matrix:
 Charge =  0 Multiplicity = 1

 SCF Done:  E(RB3LYP) =  -1387.30562934     A.U. after   16 cycles
 SCF Done:  E(RB3LYP) =  -1387.31800993     A.U. after   13 cycles
 SCF Done:  E(RB3LYP) =  -1387.31965331     A.U. after   13 cycles
 SCF Done:  E(RB3LYP) =  -1387.31922724     A.U. after   13 cycles
 SCF Done:  E(RB3LYP) =  -1387.32063858     A.U. after   12 cycles
 SCF Done:  E(RB3LYP) =  -1387.32082301     A.U. after   12 cycles
 SCF Done:  E(RB3LYP) =  -1387.32087610     A.U. after   12 cycles
 SCF Done:  E(RB3LYP) =  -1387.32093855     A.U. after   12 cycles
 SCF Done:  E(RB3LYP) =  -1387.32097243     A.U. after   11 cycles
 SCF Done:  E(RB3LYP) =  -1387.32101883     A.U. after   12 cycles
 SCF Done:  E(RB3LYP) =  -1387.32163100     A.U. after   12 cycles
 SCF Done:  E(RB3LYP) =  -1387.32165034     A.U. after   11 cycles
 SCF Done:  E(RB3LYP) =  -1387.32165322     A.U. after   10 cycles
 SCF Done:  E(RB3LYP) =  -1387.32165609     A.U. after    9 cycles
 SCF Done:  E(RB3LYP) =  -1387.32166021     A.U. after   10 cycles
 SCF Done:  E(RB3LYP) =  -1387.32166128     A.U. after    9 cycles
 SCF Done:  E(RB3LYP) =  -1387.32166193     A.U. after    8 cycles
 SCF Done:  E(RB3LYP) =  -1387.32166221     A.U. after    7 cycles
 SCF Done:  E(RB3LYP) =  -1387.32166224     A.U. after    6 cycles
 SCF Done:  E(RB3LYP) =  -1387.32166226     A.U. after    6 cycles
 Optimization completed.
    -- Stationary point found.

                         Standard orientation:
 ---------------------------------------------------------------------
 Center     Atomic      Atomic             Coordinates (Angstroms)
 Number     Number       Type             X           Y           Z
 ---------------------------------------------------------------------
      1          6           0       -1.885601    1.214037    2.732286
      2          6           0       -2.321107    2.067808    1.797932
      3          6           0       -1.843761    1.925955    0.370523
      4          6           0       -1.502508    0.472885   -0.098669
      5          6           0       -1.271058   -0.577507    1.030042
      6          6           0       -0.958870    0.070820    2.413434
      7          6           0       -0.287153    0.664085   -1.080141
      8          6           0        1.041341    0.254017   -0.473107
      9          6           0        1.194995   -0.840186    0.309997
     10          6           0       -0.059735   -1.512375    0.743578
     11          6           0        2.492233   -1.324080    0.887704
     12          8           0        2.531869   -1.696654    2.049834
     13          6           0        3.715860   -1.417154   -0.026332
     14          6           0        5.028998   -1.233469    0.750368
     15          6           0        3.653053   -2.795261   -0.724134
     16          8           0       -0.113433   -2.705228    0.988324
     17          6           0       -0.058212    2.179733   -1.271595
     18          6           0        1.456657    2.276647   -1.562341
     19          8           0        2.011733    1.116721   -0.814109
     20          6           0       -0.574210    2.761746    0.056301
     21          8           0       -0.459955   -0.065540   -2.279371
     22          6           0       -2.595991   -1.367057    1.087278
     23          6           0       -3.366270   -1.046565   -0.210629
     24          8           0       -2.573355   -0.042028   -0.899029
     25          6           0       -3.622596   -2.217405   -1.137989
     26          6           0       -2.441724   -3.031941   -1.607054
     27          6           0       -4.878989   -2.503685   -1.494527
     28          6           0        1.776844    2.063341   -3.043739
     29          6           0        2.166851    3.509664   -1.013429
     30          1           0       -0.645032    2.555653   -2.115278
     31          1           0       -2.635354    2.261994   -0.312374
     32          6           0       -3.242884    3.219635    2.102097
     33          1           0       -2.197119    1.338708    3.768266
     34          1           0       -1.032604   -0.712886    3.175409
     35          1           0        0.087674    0.404843    2.440970
     36          1           0        3.636803   -0.641948   -0.796441
     37          1           0        5.063289   -1.971437    1.559952
     38          1           0        5.862260   -1.463407    0.072694
     39          1           0        4.478416   -2.894401   -1.438148
     40          1           0        2.712507   -2.928798   -1.269526
     41          1           0        3.734205   -3.602330    0.012255
     42          1           0       -0.787368    3.833771    0.000725
     43          1           0        0.161086    2.620169    0.857738
     44          1           0       -1.423746   -0.242482   -2.313187
     45          1           0       -3.188781   -1.052745    1.949914
     46          1           0       -2.377883   -2.431167    1.200480
     47          1           0       -4.329285   -0.580028    0.027218
     48          1           0       -1.679508   -2.403640   -2.081531
     49          1           0       -1.941021   -3.535465   -0.771614
     50          1           0       -2.754712   -3.793083   -2.327652
     51          1           0       -5.722115   -1.909630   -1.149513
     52          1           0       -5.112936   -3.347371   -2.138901
     53          1           0        1.268772    1.175513   -3.427106
     54          1           0        2.856869    1.946853   -3.180764
     55          1           0        1.448820    2.931372   -3.626946
     56          1           0        1.786426    4.410714   -1.506893
     57          1           0        3.241996    3.443118   -1.208328
     58          1           0        2.022140    3.616235    0.064480
     59          1           0       -3.498557    3.260922    3.165641
     60          1           0       -2.788759    4.181877    1.827373
     61          1           0       -4.177260    3.142123    1.528865
     62          6           0        5.212651    0.173460    1.329634
     63          1           0        4.431621    0.401700    2.062696
     64          1           0        5.171184    0.937642    0.543399
     65          1           0        6.180219    0.266554    1.836012
 ---------------------------------------------------------------------

 The electronic state is 1-A.
 Alpha  occ. eigenvalues --  -19.20004 -19.16804 -19.15385 -19.13303 -19.12492
 Alpha  occ. eigenvalues --  -10.27188 -10.27136 -10.27010 -10.26396 -10.26207
 Alpha  occ. eigenvalues --  -10.26072 -10.24598 -10.21354 -10.20701 -10.20466
 Alpha  occ. eigenvalues --  -10.20376 -10.19882 -10.19665 -10.19626 -10.19442
 Alpha  occ. eigenvalues --  -10.19088 -10.19050 -10.18743 -10.18581 -10.18483
 Alpha  occ. eigenvalues --  -10.18169 -10.17944 -10.17458 -10.17079 -10.16930
 Alpha  occ. eigenvalues --  -10.16270  -1.09318  -1.06123  -1.03539  -1.02266
 Alpha  occ. eigenvalues --   -1.02162  -0.87038  -0.83979  -0.82079  -0.81229
 Alpha  occ. eigenvalues --   -0.79966  -0.79446  -0.76907  -0.73845  -0.73131
 Alpha  occ. eigenvalues --   -0.72356  -0.71654  -0.70407  -0.68761  -0.68166
 Alpha  occ. eigenvalues --   -0.64882  -0.64094  -0.63080  -0.61974  -0.60752
 Alpha  occ. eigenvalues --   -0.59222  -0.58836  -0.56698  -0.54843  -0.53468
 Alpha  occ. eigenvalues --   -0.53108  -0.51769  -0.51015  -0.49969  -0.49050
 Alpha  occ. eigenvalues --   -0.48406  -0.47482  -0.47168  -0.46601  -0.46068
 Alpha  occ. eigenvalues --   -0.44890  -0.44520  -0.44172  -0.43353  -0.42938
 Alpha  occ. eigenvalues --   -0.42737  -0.42388  -0.42058  -0.41233  -0.41131
 Alpha  occ. eigenvalues --   -0.40992  -0.40668  -0.40407  -0.40174  -0.39808
 Alpha  occ. eigenvalues --   -0.39467  -0.39134  -0.38775  -0.38649  -0.37874
 Alpha  occ. eigenvalues --   -0.37679  -0.37519  -0.37331  -0.36252  -0.35960
 Alpha  occ. eigenvalues --   -0.35807  -0.35562  -0.35475  -0.34786  -0.34510
 Alpha  occ. eigenvalues --   -0.33822  -0.33561  -0.33065  -0.32799  -0.32177
 Alpha  occ. eigenvalues --   -0.31767  -0.31482  -0.31005  -0.27663  -0.27615
 Alpha  occ. eigenvalues --   -0.25212  -0.24745  -0.24409  -0.23557  -0.22765
 Alpha virt. eigenvalues --   -0.04544  -0.01899   0.00946   0.01491   0.05196
 Alpha virt. eigenvalues --    0.07033   0.08038   0.08546   0.09606   0.10081
 Alpha virt. eigenvalues --    0.10541   0.10983   0.11084   0.12071   0.12933

 Mulliken atomic charges:
              1
     1  C   -0.197240
     2  C    0.202673
     3  C   -0.202178
     4  C    0.326067
     5  C   -0.039187
     6  C   -0.325902
     7  C    0.195355
     8  C    0.400505
     9  C   -0.096971
    10  C    0.416411
    11  C    0.430306
    12  O   -0.466503
    13  C   -0.164464
    14  C   -0.243926
    15  C   -0.455496
    16  O   -0.474655
    17  C   -0.155515
    18  C    0.298404
    19  O   -0.533406
    20  C   -0.307608
    21  O   -0.666625
    22  C   -0.351657
    23  C    0.094662
    24  O   -0.589598
    25  C    0.223856
    26  C   -0.541310
    27  C   -0.403392
    28  C   -0.466737
    29  C   -0.461299
    30  H    0.147532
    31  H    0.147896
    32  C   -0.520858
    33  H    0.126215
    34  H    0.168854
    35  H    0.170028
    36  H    0.146958
    37  H    0.154959
    38  H    0.122950
    39  H    0.146143
    40  H    0.158752
    41  H    0.163071
    42  H    0.151629
    43  H    0.160644
    44  H    0.430109
    45  H    0.153273
    46  H    0.195314
    47  H    0.130833
    48  H    0.160499
    49  H    0.189791
    50  H    0.151809
    51  H    0.137226
    52  H    0.140148
    53  H    0.194143
    54  H    0.156136
    55  H    0.145980
    56  H    0.152381
    57  H    0.163742
    58  H    0.162258
    59  H    0.158194
    60  H    0.154344
    61  H    0.156652
    62  C   -0.452472
    63  H    0.155933
    64  H    0.135064
    65  H    0.139301
 Sum of Mulliken atomic charges =   0.00000

 Dipole moment (field-independent basis, Debye):
    X=             -2.2482    Y=              5.4272    Z=             -1.9254  Tot=              6.1819
 Quadrupole moment (field-independent basis, Debye-Ang):
   XX=           -178.8681   YY=           -181.9103   ZZ=           -187.5097
   XY=              3.5913   XZ=             -9.7521   YZ=              4.5764

 Normal termination of Gaussian 09 at Wed Mar 24 15:31:26 2021.
