 Gaussian 09, Revision B.01,
 Gaussian 09:  EM64L-G09RevB.01 12-Aug-2010

 ---------------------------------------
 # opt rb3lyp/6-31g(d) geom=connectivity
 ---------------------------------------

 -------------------
 Title Card Required
 -------------------
 Symbolic Z-matrix:
 Charge =  0 Multiplicity = 1

 SCF Done:  E(RB3LYP) =  -1387.30194824     A.U. after   16 cycles
 SCF Done:  E(RB3LYP) =  -1387.31470012     A.U. after   13 cycles
 SCF Done:  E(RB3LYP) =  -1387.31709288     A.U. after   13 cycles
 SCF Done:  E(RB3LYP) =  -1387.31612133     A.U. after   13 cycles
 SCF Done:  E(RB3LYP) =  -1387.31784228     A.U. after   12 cycles
 SCF Done:  E(RB3LYP) =  -1387.31850945     A.U. after   12 cycles
 SCF Done:  E(RB3LYP) =  -1387.31817360     A.U. after   13 cycles
 SCF Done:  E(RB3LYP) =  -1387.31932129     A.U. after   12 cycles
 SCF Done:  E(RB3LYP) =  -1387.31951360     A.U. after   12 cycles
 SCF Done:  E(RB3LYP) =  -1387.31962504     A.U. after   12 cycles
 SCF Done:  E(RB3LYP) =  -1387.31964558     A.U. after   10 cycles
 SCF Done:  E(RB3LYP) =  -1387.31965074     A.U. after    8 cycles
 SCF Done:  E(RB3LYP) =  -1387.31965248     A.U. after   10 cycles
 SCF Done:  E(RB3LYP) =  -1387.31965321     A.U. after    8 cycles
 SCF Done:  E(RB3LYP) =  -1387.31965379     A.U. after    8 cycles
 SCF Done:  E(RB3LYP) =  -1387.31965404     A.U. after    7 cycles
 SCF Done:  E(RB3LYP) =  -1387.31965410     A.U. after    6 cycles
 Optimization completed.
    -- Stationary point found.

                         Standard orientation:
 ---------------------------------------------------------------------
 Center     Atomic      Atomic             Coordinates (Angstroms)
 Number     Number       Type             X           Y           Z
 ---------------------------------------------------------------------
      1          6           0       -1.582868   -0.115277    2.925588
      2          6           0       -2.342325    0.823674    2.348394
      3          6           0       -2.051757    1.265982    0.932932
      4          6           0       -1.379403    0.203384    0.003084
      5          6           0       -0.685865   -1.013016    0.704441
      6          6           0       -0.421494   -0.763541    2.220055
      7          6           0       -0.437716    1.034308   -0.921820
      8          6           0        1.032513    0.941602   -0.526379
      9          6           0        1.635339   -0.223515   -0.139402
     10          6           0        0.713536   -1.354243    0.103878
     11          6           0        3.122752   -0.325958   -0.002420
     12          8           0        3.847591    0.528457   -0.495218
     13          6           0        3.751468   -1.448518    0.835743
     14          6           0        4.867060   -2.155346    0.039658
     15          6           0        4.311794   -0.811319    2.124100
     16          8           0        1.041830   -2.527143   -0.021301
     17          6           0       -0.703129    2.531578   -0.655432
     18          6           0        0.652663    3.191999   -0.985355
     19          8           0        1.629591    2.118585   -0.657096
     20          6           0       -1.152183    2.525165    0.818994
     21          8           0       -0.534760    0.638749   -2.274150
     22          6           0       -1.673561   -2.187434    0.474362
     23          6           0       -2.891866   -1.567883   -0.213733
     24          8           0       -2.371084   -0.377486   -0.855122
     25          6           0       -3.653189   -2.378119   -1.239955
     26          6           0       -4.696207   -1.611534   -2.016929
     27          6           0       -3.467062   -3.691119   -1.400922
     28          6           0        0.805564    3.501805   -2.476185
     29          6           0        1.045966    4.390575   -0.127963
     30          1           0       -1.498133    2.906997   -1.306369
     31          1           0       -3.000675    1.505785    0.433657
     32          6           0       -3.483433    1.505719    3.057382
     33          1           0       -1.779237   -0.413638    3.954300
     34          1           0       -0.171945   -1.724875    2.682353
     35          1           0        0.475036   -0.137317    2.336143
     36          1           0        2.992547   -2.186072    1.102534
     37          1           0        5.613085   -1.404633   -0.248044
     38          1           0        5.368808   -2.862242    0.714539
     39          1           0        4.786904   -1.574636    2.751017
     40          1           0        3.522253   -0.334287    2.718179
     41          1           0        5.057245   -0.048094    1.878138
     42          1           0       -1.678126    3.439429    1.110389
     43          1           0       -0.290366    2.420975    1.489176
     44          1           0       -1.300476    0.029266   -2.304994
     45          1           0       -1.952167   -2.679314    1.409971
     46          1           0       -1.185137   -2.930164   -0.159514
     47          1           0       -3.613566   -1.229910    0.548498
     48          1           0       -5.414643   -1.128234   -1.340406
     49          1           0       -4.239429   -0.810938   -2.609814
     50          1           0       -5.251539   -2.269208   -2.691882
     51          1           0       -2.729795   -4.254286   -0.838253
     52          1           0       -4.064784   -4.257279   -2.110661
     53          1           0        0.523751    2.639701   -3.084873
     54          1           0        1.843968    3.768896   -2.695523
     55          1           0        0.165079    4.348223   -2.749530
     56          1           0        0.352694    5.219898   -0.306253
     57          1           0        2.054214    4.723977   -0.392008
     58          1           0        1.035694    4.151452    0.938451
     59          1           0       -3.602294    1.134030    4.079994
     60          1           0       -3.330431    2.592515    3.110053
     61          1           0       -4.432072    1.350631    2.524759
     62          6           0        4.369091   -2.898285   -1.205041
     63          1           0        3.941650   -2.203162   -1.936731
     64          1           0        3.590795   -3.625602   -0.950481
     65          1           0        5.191633   -3.431278   -1.696156
 ---------------------------------------------------------------------

 The electronic state is 1-A.
 Alpha  occ. eigenvalues --  -19.19948 -19.17240 -19.15209 -19.13297 -19.11312
 Alpha  occ. eigenvalues --  -10.27442 -10.27221 -10.26673 -10.26344 -10.26129
 Alpha  occ. eigenvalues --  -10.25593 -10.25040 -10.21615 -10.20791 -10.20657
 Alpha  occ. eigenvalues --  -10.20558 -10.20406 -10.20272 -10.20165 -10.19411
 Alpha  occ. eigenvalues --  -10.19175 -10.19107 -10.18877 -10.18660 -10.18659
 Alpha  occ. eigenvalues --  -10.18336 -10.18097 -10.17204 -10.16624 -10.16278
 Alpha  occ. eigenvalues --  -10.15095  -1.09613  -1.06667  -1.03305  -1.02425
 Alpha  occ. eigenvalues --   -1.01328  -0.87198  -0.83827  -0.82249  -0.81446
 Alpha  occ. eigenvalues --   -0.80248  -0.78675  -0.76799  -0.74228  -0.73233
 Alpha  occ. eigenvalues --   -0.72270  -0.70996  -0.70127  -0.69249  -0.68368
 Alpha  occ. eigenvalues --   -0.65131  -0.64079  -0.63341  -0.61537  -0.60865
 Alpha  occ. eigenvalues --   -0.59255  -0.58518  -0.56916  -0.54759  -0.53477
 Alpha  occ. eigenvalues --   -0.52673  -0.51670  -0.51324  -0.50017  -0.49608
 Alpha  occ. eigenvalues --   -0.48285  -0.47510  -0.47051  -0.46701  -0.46051
 Alpha  occ. eigenvalues --   -0.45207  -0.44378  -0.44156  -0.43517  -0.42852
 Alpha  occ. eigenvalues --   -0.42586  -0.42280  -0.41827  -0.41476  -0.41252
 Alpha  occ. eigenvalues --   -0.40888  -0.40565  -0.40356  -0.40054  -0.39795
 Alpha  occ. eigenvalues --   -0.39452  -0.39273  -0.38921  -0.38549  -0.38222
 Alpha  occ. eigenvalues --   -0.37650  -0.37244  -0.37129  -0.36874  -0.36035
 Alpha  occ. eigenvalues --   -0.35974  -0.35394  -0.34763  -0.34618  -0.34102
 Alpha  occ. eigenvalues --   -0.33908  -0.33225  -0.33013  -0.32582  -0.31980
 Alpha  occ. eigenvalues --   -0.31394  -0.30914  -0.30295  -0.28352  -0.27390
 Alpha  occ. eigenvalues --   -0.25925  -0.24766  -0.24420  -0.23349  -0.22007
 Alpha virt. eigenvalues --   -0.04967  -0.01569   0.00793   0.00920   0.05658
 Alpha virt. eigenvalues --    0.07575   0.08173   0.08413   0.09497   0.09592
 Alpha virt. eigenvalues --    0.10561   0.11357   0.11686   0.11847   0.12301

 Mulliken atomic charges:
              1
     1  C   -0.193971
     2  C    0.199363
     3  C   -0.198461
     4  C    0.312618
     5  C   -0.024471
     6  C   -0.331572
     7  C    0.194756
     8  C    0.412910
     9  C   -0.081774
    10  C    0.375293
    11  C    0.429149
    12  O   -0.484816
    13  C   -0.151879
    14  C   -0.248505
    15  C   -0.453008
    16  O   -0.486575
    17  C   -0.154221
    18  C    0.290680
    19  O   -0.486702
    20  C   -0.309250
    21  O   -0.664568
    22  C   -0.333296
    23  C    0.103794
    24  O   -0.584068
    25  C    0.187440
    26  C   -0.505804
    27  C   -0.393363
    28  C   -0.466534
    29  C   -0.460974
    30  H    0.149457
    31  H    0.148028
    32  C   -0.521500
    33  H    0.125799
    34  H    0.161939
    35  H    0.160790
    36  H    0.149080
    37  H    0.149993
    38  H    0.121784
    39  H    0.142045
    40  H    0.132553
    41  H    0.164044
    42  H    0.152504
    43  H    0.159822
    44  H    0.423093
    45  H    0.148372
    46  H    0.189178
    47  H    0.136129
    48  H    0.150850
    49  H    0.169270
    50  H    0.154425
    51  H    0.152384
    52  H    0.139799
    53  H    0.195946
    54  H    0.166519
    55  H    0.143040
    56  H    0.150456
    57  H    0.171512
    58  H    0.159160
    59  H    0.158843
    60  H    0.156689
    61  H    0.155747
    62  C   -0.452633
    63  H    0.152639
    64  H    0.157602
    65  H    0.132448
 Sum of Mulliken atomic charges =   0.00000

 Dipole moment (field-independent basis, Debye):
    X=             -5.9329    Y=              2.7805    Z=              2.5895  Tot=              7.0453
 Quadrupole moment (field-independent basis, Debye-Ang):
   XX=           -190.9338   YY=           -175.5528   ZZ=           -181.9477
   XY=             -1.2465   XZ=              4.0210   YZ=             -1.4675

 Normal termination of Gaussian 09 at Wed Mar 24 18:07:25 2021.
