 Gaussian 09, Revision B.01,
 Gaussian 09:  EM64L-G09RevB.01 12-Aug-2010

 ---------------------------------------
 # opt rb3lyp/6-31g(d) geom=connectivity
 ---------------------------------------

 -------------------
 Title Card Required
 -------------------
 Symbolic Z-matrix:
 Charge =  0 Multiplicity = 1

 SCF Done:  E(RB3LYP) =  -1387.30467939     A.U. after   16 cycles
 SCF Done:  E(RB3LYP) =  -1387.31719544     A.U. after   13 cycles
 SCF Done:  E(RB3LYP) =  -1387.31984352     A.U. after   13 cycles
 SCF Done:  E(RB3LYP) =  -1387.31985450     A.U. after   14 cycles
 SCF Done:  E(RB3LYP) =  -1387.32087861     A.U. after   14 cycles
 SCF Done:  E(RB3LYP) =  -1387.32093448     A.U. after   12 cycles
 SCF Done:  E(RB3LYP) =  -1387.32139010     A.U. after   13 cycles
 SCF Done:  E(RB3LYP) =  -1387.32151499     A.U. after   13 cycles
 SCF Done:  E(RB3LYP) =  -1387.32154415     A.U. after   11 cycles
 SCF Done:  E(RB3LYP) =  -1387.32156859     A.U. after   12 cycles
 SCF Done:  E(RB3LYP) =  -1387.32157633     A.U. after   10 cycles
 SCF Done:  E(RB3LYP) =  -1387.32157746     A.U. after   10 cycles
 SCF Done:  E(RB3LYP) =  -1387.32157861     A.U. after   10 cycles
 SCF Done:  E(RB3LYP) =  -1387.32157932     A.U. after    7 cycles
 SCF Done:  E(RB3LYP) =  -1387.32157961     A.U. after    7 cycles
 Optimization completed.
    -- Stationary point found.

                         Standard orientation:
 ---------------------------------------------------------------------
 Center     Atomic      Atomic             Coordinates (Angstroms)
 Number     Number       Type             X           Y           Z
 ---------------------------------------------------------------------
      1          6           0       -1.527359    0.602430    3.178112
      2          6           0       -1.507142    1.753348    2.495888
      3          6           0       -1.651267    1.775381    0.988078
      4          6           0       -1.498778    0.397198    0.271835
      5          6           0       -1.119916   -0.846321    1.115472
      6          6           0       -1.697689   -0.752447    2.548589
      7          6           0       -0.495572    0.667741   -0.877802
      8          6           0        0.947930    0.488744   -0.453574
      9          6           0        1.385636   -0.420683    0.453821
     10          6           0        0.394055   -1.182598    1.221125
     11          6           0        2.863300   -0.533618    0.778798
     12          8           0        3.494480    0.472952    1.049914
     13          6           0        3.510918   -1.913137    0.708516
     14          6           0        3.421513   -2.474998   -0.737388
     15          6           0        4.939101   -1.884464    1.261030
     16          8           0        0.718949   -2.083527    1.991334
     17          6           0       -0.475048    2.187310   -1.150979
     18          6           0        0.923433    2.402554   -1.778967
     19          8           0        1.734725    1.351484   -1.104016
     20          6           0       -0.676112    2.754145    0.269673
     21          8           0       -0.715894   -0.165508   -2.001069
     22          6           0       -1.819997   -1.984610    0.329125
     23          6           0       -3.115718   -1.314032   -0.152833
     24          8           0       -2.770540    0.070107   -0.344279
     25          6           0       -3.735251   -1.909161   -1.399735
     26          6           0       -4.004295   -3.392563   -1.336412
     27          6           0       -4.068632   -1.161848   -2.457283
     28          6           0        0.953409    2.124827   -3.283627
     29          6           0        1.607240    3.729577   -1.459444
     30          1           0       -1.277093    2.491760   -1.830559
     31          1           0       -2.675772    2.095520    0.750462
     32          6           0       -1.415077    3.089240    3.190798
     33          1           0       -1.457514    0.631465    4.264653
     34          1           0       -2.767836   -1.008397    2.531006
     35          1           0       -1.209709   -1.525560    3.148933
     36          1           0        2.890313   -2.564663    1.335298
     37          1           0        3.817030   -3.499075   -0.719433
     38          1           0        2.364567   -2.560672   -1.019284
     39          1           0        4.943321   -1.569666    2.309257
     40          1           0        5.388680   -2.882587    1.200877
     41          1           0        5.573658   -1.182968    0.712351
     42          1           0        0.280146    2.764326    0.803286
     43          1           0       -1.052655    3.780927    0.263996
     44          1           0       -1.686704   -0.242692   -2.079723
     45          1           0       -1.996203   -2.859986    0.959666
     46          1           0       -1.212083   -2.289081   -0.528766
     47          1           0       -3.871907   -1.363444    0.648062
     48          1           0       -4.528677   -3.737237   -2.232032
     49          1           0       -3.075583   -3.969430   -1.241938
     50          1           0       -4.622439   -3.645139   -0.463902
     51          1           0       -3.921248   -0.086759   -2.466886
     52          1           0       -4.526338   -1.605889   -3.337168
     53          1           0        1.989609    2.106154   -3.636656
     54          1           0        0.424441    2.920900   -3.820333
     55          1           0        0.479731    1.169353   -3.515525
     56          1           0        2.610960    3.746080   -1.895197
     57          1           0        1.033347    4.557519   -1.890654
     58          1           0        1.704845    3.892966   -0.384009
     59          1           0       -1.388012    2.966682    4.277850
     60          1           0       -0.518602    3.649045    2.894997
     61          1           0       -2.277827    3.724419    2.943517
     62          6           0        4.163205   -1.656228   -1.801613
     63          1           0        5.238280   -1.604324   -1.597931
     64          1           0        4.036355   -2.109808   -2.791403
     65          1           0        3.785851   -0.628516   -1.855117
 ---------------------------------------------------------------------

 The electronic state is 1-A.
 Alpha  occ. eigenvalues --  -19.19520 -19.16637 -19.15818 -19.12708 -19.12406
 Alpha  occ. eigenvalues --  -10.27258 -10.27229 -10.26589 -10.26194 -10.25743
 Alpha  occ. eigenvalues --  -10.25704 -10.25311 -10.21329 -10.20948 -10.20577
 Alpha  occ. eigenvalues --  -10.20277 -10.19794 -10.19770 -10.19432 -10.19336
 Alpha  occ. eigenvalues --  -10.19129 -10.18790 -10.18759 -10.18468 -10.18417
 Alpha  occ. eigenvalues --  -10.18104 -10.18070 -10.17557 -10.17477 -10.16241
 Alpha  occ. eigenvalues --  -10.15682  -1.09156  -1.06006  -1.02972  -1.02580
 Alpha  occ. eigenvalues --   -1.02180  -0.86712  -0.83579  -0.82446  -0.81363
 Alpha  occ. eigenvalues --   -0.80218  -0.79237  -0.76553  -0.74277  -0.73119
 Alpha  occ. eigenvalues --   -0.71624  -0.71124  -0.69867  -0.69633  -0.67942
 Alpha  occ. eigenvalues --   -0.65448  -0.64149  -0.63193  -0.61542  -0.60580
 Alpha  occ. eigenvalues --   -0.59351  -0.58638  -0.56887  -0.54525  -0.53849
 Alpha  occ. eigenvalues --   -0.52632  -0.52030  -0.50728  -0.50241  -0.49168
 Alpha  occ. eigenvalues --   -0.47827  -0.47047  -0.46572  -0.46257  -0.45779
 Alpha  occ. eigenvalues --   -0.44988  -0.44737  -0.44315  -0.43723  -0.43156
 Alpha  occ. eigenvalues --   -0.43147  -0.42739  -0.42037  -0.41835  -0.41260
 Alpha  occ. eigenvalues --   -0.40808  -0.40605  -0.40507  -0.39918  -0.39181
 Alpha  occ. eigenvalues --   -0.38983  -0.38718  -0.38123  -0.37627  -0.37529
 Alpha  occ. eigenvalues --   -0.37316  -0.37204  -0.37037  -0.36995  -0.36597
 Alpha  occ. eigenvalues --   -0.36163  -0.35617  -0.35178  -0.34769  -0.34457
 Alpha  occ. eigenvalues --   -0.33870  -0.33490  -0.33336  -0.32722  -0.31916
 Alpha  occ. eigenvalues --   -0.31394  -0.31124  -0.30831  -0.28290  -0.26459
 Alpha  occ. eigenvalues --   -0.25998  -0.24488  -0.24058  -0.23362  -0.22551
 Alpha virt. eigenvalues --   -0.04692  -0.00791   0.00886   0.02234   0.05565
 Alpha virt. eigenvalues --    0.07221   0.08290   0.08881   0.09398   0.10038
 Alpha virt. eigenvalues --    0.10363   0.10938   0.11259   0.11939   0.12404

 Mulliken atomic charges:
              1
     1  C   -0.188363
     2  C    0.193885
     3  C   -0.189511
     4  C    0.322423
     5  C   -0.050121
     6  C   -0.332658
     7  C    0.198261
     8  C    0.408487
     9  C   -0.095850
    10  C    0.421117
    11  C    0.422623
    12  O   -0.454087
    13  C   -0.174889
    14  C   -0.265756
    15  C   -0.444155
    16  O   -0.512296
    17  C   -0.165950
    18  C    0.302940
    19  O   -0.518868
    20  C   -0.325596
    21  O   -0.661178
    22  C   -0.324960
    23  C    0.106363
    24  O   -0.590118
    25  C    0.186973
    26  C   -0.519516
    27  C   -0.408577
    28  C   -0.469403
    29  C   -0.457282
    30  H    0.142951
    31  H    0.166361
    32  C   -0.520004
    33  H    0.122939
    34  H    0.145370
    35  H    0.183518
    36  H    0.181396
    37  H    0.136606
    38  H    0.141626
    39  H    0.151748
    40  H    0.131380
    41  H    0.157823
    42  H    0.174212
    43  H    0.151031
    44  H    0.415843
    45  H    0.165633
    46  H    0.171636
    47  H    0.145346
    48  H    0.161858
    49  H    0.169601
    50  H    0.159086
    51  H    0.153263
    52  H    0.139605
    53  H    0.158572
    54  H    0.142969
    55  H    0.191582
    56  H    0.166299
    57  H    0.148012
    58  H    0.168201
    59  H    0.158084
    60  H    0.159878
    61  H    0.150168
    62  C   -0.454166
    63  H    0.148077
    64  H    0.139043
    65  H    0.160509
 Sum of Mulliken atomic charges =   0.00000

 Dipole moment (field-independent basis, Debye):
    X=             -4.5871    Y=              1.4988    Z=             -2.1479  Tot=              5.2821
 Quadrupole moment (field-independent basis, Debye-Ang):
   XX=           -190.1709   YY=           -171.9905   ZZ=           -183.7570
   XY=              2.3297   XZ=             -5.3097   YZ=             -0.0174

 Normal termination of Gaussian 09 at Wed Mar 24 14:37:45 2021.
