 Gaussian 09, Revision B.01,
 Gaussian 09:  EM64L-G09RevB.01 12-Aug-2010

 ---------------------------------------
 # opt rb3lyp/6-31g(d) geom=connectivity
 ---------------------------------------

 -------------------
 Title Card Required
 -------------------
 Symbolic Z-matrix:
 Charge =  0 Multiplicity = 1

 SCF Done:  E(RB3LYP) =  -1387.30393053     A.U. after   16 cycles
 SCF Done:  E(RB3LYP) =  -1387.31647401     A.U. after   13 cycles
 SCF Done:  E(RB3LYP) =  -1387.31885786     A.U. after   13 cycles
 SCF Done:  E(RB3LYP) =  -1387.31852188     A.U. after   13 cycles
 SCF Done:  E(RB3LYP) =  -1387.32036432     A.U. after   13 cycles
 SCF Done:  E(RB3LYP) =  -1387.32074616     A.U. after   12 cycles
 SCF Done:  E(RB3LYP) =  -1387.32099608     A.U. after   13 cycles
 SCF Done:  E(RB3LYP) =  -1387.32131670     A.U. after   13 cycles
 SCF Done:  E(RB3LYP) =  -1387.32150384     A.U. after   12 cycles
 SCF Done:  E(RB3LYP) =  -1387.32174572     A.U. after   13 cycles
 SCF Done:  E(RB3LYP) =  -1387.32193119     A.U. after   13 cycles
 SCF Done:  E(RB3LYP) =  -1387.32188721     A.U. after   13 cycles
 SCF Done:  E(RB3LYP) =  -1387.32237280     A.U. after   12 cycles
 SCF Done:  E(RB3LYP) =  -1387.32240968     A.U. after   10 cycles
 SCF Done:  E(RB3LYP) =  -1387.32241195     A.U. after   10 cycles
 SCF Done:  E(RB3LYP) =  -1387.32241223     A.U. after    8 cycles
 SCF Done:  E(RB3LYP) =  -1387.32241233     A.U. after    8 cycles
 SCF Done:  E(RB3LYP) =  -1387.32241243     A.U. after    7 cycles
 SCF Done:  E(RB3LYP) =  -1387.32241242     A.U. after    7 cycles
 SCF Done:  E(RB3LYP) =  -1387.32241243     A.U. after    6 cycles
 Optimization completed.
    -- Stationary point found.

                         Standard orientation:
 ---------------------------------------------------------------------
 Center     Atomic      Atomic             Coordinates (Angstroms)
 Number     Number       Type             X           Y           Z
 ---------------------------------------------------------------------
      1          6           0       -2.274226    0.217159    2.739953
      2          6           0       -3.017706    0.928585    1.883694
      3          6           0       -2.500221    1.197157    0.488632
      4          6           0       -1.570452    0.095569   -0.120383
      5          6           0       -0.934869   -0.904737    0.886810
      6          6           0       -0.941663   -0.368323    2.351315
      7          6           0       -0.526067    0.899782   -0.966410
      8          6           0        0.840445    0.986481   -0.301462
      9          6           0        1.449162   -0.090321    0.288084
     10          6           0        0.561504   -1.239081    0.570224
     11          6           0        2.908871   -0.045463    0.636069
     12          8           0        3.476832    1.034754    0.728031
     13          6           0        3.690698   -1.344392    0.875367
     14          6           0        5.134233   -1.209815    0.357767
     15          6           0        3.669548   -1.653838    2.387816
     16          8           0        0.956804   -2.388180    0.734260
     17          6           0       -0.942640    2.385280   -0.967962
     18          6           0        0.405141    3.124420   -1.115701
     19          8           0        1.364434    2.193580   -0.458460
     20          6           0       -1.693634    2.518752    0.369252
     21          8           0       -0.338507    0.334591   -2.248694
     22          6           0       -1.825508   -2.161516    0.770843
     23          6           0       -2.626773   -2.023175   -0.540371
     24          8           0       -2.308852   -0.701769   -1.054734
     25          6           0       -2.349400   -3.064441   -1.605763
     26          6           0       -0.926158   -3.254274   -2.070827
     27          6           0       -3.363426   -3.791038   -2.086903
     28          6           0        0.837619    3.266448   -2.576678
     29          6           0        0.535992    4.447072   -0.367864
     30          1           0       -1.605668    2.599134   -1.811537
     31          1           0       -3.346936    1.264914   -0.207074
     32          6           0       -4.348237    1.530401    2.252017
     33          1           0       -2.624619    0.051686    3.757560
     34          1           0       -0.674904   -1.197879    3.015959
     35          1           0       -0.147475    0.381080    2.474534
     36          1           0        3.186568   -2.163975    0.357899
     37          1           0        5.690550   -2.101361    0.677528
     38          1           0        5.605274   -0.347016    0.841694
     39          1           0        4.125489   -0.834005    2.954987
     40          1           0        2.649825   -1.808053    2.754345
     41          1           0        4.236768   -2.569125    2.591777
     42          1           0       -0.989616    2.592488    1.206770
     43          1           0       -2.338194    3.402065    0.412720
     44          1           0       -1.133576   -0.223431   -2.381470
     45          1           0       -1.199317   -3.055191    0.795961
     46          1           0       -2.517481   -2.210635    1.615158
     47          1           0       -3.701957   -2.028773   -0.326991
     48          1           0       -0.282863   -3.622369   -1.262823
     49          1           0       -0.878585   -3.968492   -2.897941
     50          1           0       -0.480174   -2.311292   -2.406584
     51          1           0       -3.208844   -4.563089   -2.836440
     52          1           0       -4.385527   -3.646384   -1.744649
     53          1           0        1.878012    3.602643   -2.626398
     54          1           0        0.210040    4.010160   -3.080924
     55          1           0        0.743306    2.315438   -3.105779
     56          1           0        0.323967    4.335497    0.698319
     57          1           0        1.553021    4.837111   -0.472629
     58          1           0       -0.159323    5.182445   -0.787396
     59          1           0       -4.615765    1.312022    3.290730
     60          1           0       -4.343173    2.622153    2.127760
     61          1           0       -5.149207    1.147333    1.604608
     62          6           0        5.237020   -1.064839   -1.164400
     63          1           0        4.743814   -0.149316   -1.508374
     64          1           0        6.284414   -1.016171   -1.484168
     65          1           0        4.770955   -1.914551   -1.679077
 ---------------------------------------------------------------------

 The electronic state is 1-A.
 Alpha  occ. eigenvalues --  -19.20162 -19.16946 -19.15471 -19.13451 -19.11510
 Alpha  occ. eigenvalues --  -10.27678 -10.27535 -10.26772 -10.26263 -10.26103
 Alpha  occ. eigenvalues --  -10.25816 -10.24743 -10.21631 -10.20656 -10.20614
 Alpha  occ. eigenvalues --  -10.20438 -10.20138 -10.20108 -10.19802 -10.19265
 Alpha  occ. eigenvalues --  -10.19201 -10.19090 -10.19000 -10.18657 -10.18302
 Alpha  occ. eigenvalues --  -10.18078 -10.17611 -10.17092 -10.16458 -10.16203
 Alpha  occ. eigenvalues --  -10.15592  -1.09797  -1.06280  -1.03459  -1.02390
 Alpha  occ. eigenvalues --   -1.01559  -0.87209  -0.83910  -0.82118  -0.81321
 Alpha  occ. eigenvalues --   -0.80038  -0.78674  -0.76865  -0.73990  -0.73213
 Alpha  occ. eigenvalues --   -0.72278  -0.71144  -0.70195  -0.68879  -0.68262
 Alpha  occ. eigenvalues --   -0.65086  -0.63686  -0.63238  -0.61679  -0.60819
 Alpha  occ. eigenvalues --   -0.59128  -0.58670  -0.56789  -0.54494  -0.53702
 Alpha  occ. eigenvalues --   -0.52795  -0.51820  -0.51232  -0.50085  -0.49207
 Alpha  occ. eigenvalues --   -0.47788  -0.47503  -0.47113  -0.46684  -0.46115
 Alpha  occ. eigenvalues --   -0.45072  -0.44610  -0.44158  -0.43567  -0.42666
 Alpha  occ. eigenvalues --   -0.42573  -0.41987  -0.41591  -0.41354  -0.41042
 Alpha  occ. eigenvalues --   -0.40796  -0.40656  -0.40301  -0.39833  -0.39685
 Alpha  occ. eigenvalues --   -0.39484  -0.39351  -0.38809  -0.38500  -0.37931
 Alpha  occ. eigenvalues --   -0.37627  -0.37255  -0.36933  -0.36534  -0.36058
 Alpha  occ. eigenvalues --   -0.35869  -0.35406  -0.34883  -0.34492  -0.34391
 Alpha  occ. eigenvalues --   -0.33925  -0.33560  -0.33026  -0.32410  -0.32032
 Alpha  occ. eigenvalues --   -0.31591  -0.31058  -0.30563  -0.27793  -0.27638
 Alpha  occ. eigenvalues --   -0.25352  -0.24768  -0.24353  -0.23604  -0.22162
 Alpha virt. eigenvalues --   -0.05232  -0.01338   0.00742   0.01333   0.05741
 Alpha virt. eigenvalues --    0.07268   0.08270   0.08528   0.09712   0.09896
 Alpha virt. eigenvalues --    0.10465   0.10913   0.11593   0.12052   0.12744

 Mulliken atomic charges:
              1
     1  C   -0.198135
     2  C    0.204083
     3  C   -0.203224
     4  C    0.329059
     5  C   -0.036174
     6  C   -0.327414
     7  C    0.186911
     8  C    0.399748
     9  C   -0.070040
    10  C    0.397670
    11  C    0.410181
    12  O   -0.477671
    13  C   -0.148069
    14  C   -0.242939
    15  C   -0.458498
    16  O   -0.502240
    17  C   -0.152298
    18  C    0.290381
    19  O   -0.481642
    20  C   -0.309417
    21  O   -0.663689
    22  C   -0.350530
    23  C    0.094035
    24  O   -0.589281
    25  C    0.224759
    26  C   -0.541392
    27  C   -0.403396
    28  C   -0.467855
    29  C   -0.460072
    30  H    0.148349
    31  H    0.148859
    32  C   -0.521023
    33  H    0.126107
    34  H    0.162851
    35  H    0.164332
    36  H    0.159807
    37  H    0.121116
    38  H    0.150421
    39  H    0.151418
    40  H    0.149838
    41  H    0.146339
    42  H    0.161649
    43  H    0.152695
    44  H    0.430475
    45  H    0.194994
    46  H    0.152649
    47  H    0.130867
    48  H    0.187885
    49  H    0.152524
    50  H    0.161217
    51  H    0.140553
    52  H    0.137510
    53  H    0.164559
    54  H    0.145093
    55  H    0.193352
    56  H    0.161990
    57  H    0.171771
    58  H    0.150138
    59  H    0.158223
    60  H    0.155883
    61  H    0.157420
    62  C   -0.453752
    63  H    0.156909
    64  H    0.137200
    65  H    0.136929
 Sum of Mulliken atomic charges =   0.00000

 Dipole moment (field-independent basis, Debye):
    X=             -5.3800    Y=              2.1583    Z=              0.2447  Tot=              5.8019
 Quadrupole moment (field-independent basis, Debye-Ang):
   XX=           -189.0282   YY=           -176.5832   ZZ=           -182.0834
   XY=             -5.3408   XZ=             -4.5193   YZ=             -2.1117

 Normal termination of Gaussian 09 at Wed Mar 24 17:30:19 2021.
