 Gaussian 09, Revision B.01,
 Gaussian 09:  EM64L-G09RevB.01 12-Aug-2010

 ---------------------------------------
 # opt rb3lyp/6-31g(d) geom=connectivity
 ---------------------------------------

 -------------------
 Title Card Required
 -------------------
 Symbolic Z-matrix:
 Charge =  0 Multiplicity = 1

 SCF Done:  E(RB3LYP) =  -1387.30533082     A.U. after   16 cycles
 SCF Done:  E(RB3LYP) =  -1387.31778517     A.U. after   13 cycles
 SCF Done:  E(RB3LYP) =  -1387.31968691     A.U. after   13 cycles
 SCF Done:  E(RB3LYP) =  -1387.31827837     A.U. after   13 cycles
 SCF Done:  E(RB3LYP) =  -1387.32042319     A.U. after   13 cycles
 SCF Done:  E(RB3LYP) =  -1387.32022967     A.U. after   13 cycles
 SCF Done:  E(RB3LYP) =  -1387.32058878     A.U. after   12 cycles
 SCF Done:  E(RB3LYP) =  -1387.32062652     A.U. after   10 cycles
 SCF Done:  E(RB3LYP) =  -1387.32063946     A.U. after   11 cycles
 SCF Done:  E(RB3LYP) =  -1387.32065009     A.U. after   10 cycles
 SCF Done:  E(RB3LYP) =  -1387.32066110     A.U. after   11 cycles
 SCF Done:  E(RB3LYP) =  -1387.32067342     A.U. after   12 cycles
 SCF Done:  E(RB3LYP) =  -1387.32067614     A.U. after   10 cycles
 SCF Done:  E(RB3LYP) =  -1387.32067850     A.U. after   10 cycles
 SCF Done:  E(RB3LYP) =  -1387.32067844     A.U. after    7 cycles
 SCF Done:  E(RB3LYP) =  -1387.32067848     A.U. after    6 cycles
 SCF Done:  E(RB3LYP) =  -1387.32067864     A.U. after    7 cycles
 Optimization completed.
    -- Stationary point found.

                         Standard orientation:
 ---------------------------------------------------------------------
 Center     Atomic      Atomic             Coordinates (Angstroms)
 Number     Number       Type             X           Y           Z
 ---------------------------------------------------------------------
      1          6           0       -0.479662   -0.991679    3.082191
      2          6           0       -0.714675    0.324124    3.018196
      3          6           0       -1.344939    0.952706    1.792347
      4          6           0       -1.406435    0.052230    0.517593
      5          6           0       -0.764298   -1.359048    0.566447
      6          6           0       -0.822644   -1.966072    1.990079
      7          6           0       -0.822711    0.939323   -0.613846
      8          6           0        0.682834    0.820992   -0.754240
      9          6           0        1.401288   -0.309839   -0.504036
     10          6           0        0.698492   -1.472267    0.054044
     11          6           0        2.880835   -0.350910   -0.789166
     12          8           0        3.327016    0.223580   -1.769555
     13          6           0        3.826161   -1.006562    0.223977
     14          6           0        4.969062   -1.757575   -0.482495
     15          6           0        4.371032    0.119954    1.129510
     16          8           0        1.236439   -2.573942    0.135258
     17          6           0       -0.916967    2.412443   -0.163128
     18          6           0        0.208740    3.089266   -0.980133
     19          8           0        1.212141    1.994801   -1.096280
     20          6           0       -0.674455    2.288649    1.354358
     21          8           0       -1.395012    0.639455   -1.871996
     22          6           0       -1.681809   -2.161732   -0.394171
     23          6           0       -3.059682   -1.568651   -0.118589
     24          8           0       -2.800258   -0.165165    0.179892
     25          6           0       -4.120674   -1.638431   -1.197309
     26          6           0       -5.413842   -0.935838   -0.859647
     27          6           0       -3.946691   -2.304095   -2.343253
     28          6           0       -0.225303    3.475022   -2.396047
     29          6           0        0.930569    4.250188   -0.301380
     30          1           0       -1.897951    2.842180   -0.387084
     31          1           0       -2.396309    1.171747    2.027257
     32          6           0       -0.437008    1.239095    4.185676
     33          1           0       -0.058992   -1.409202    3.996183
     34          1           0       -1.830387   -2.367122    2.176176
     35          1           0       -0.148730   -2.827753    2.005761
     36          1           0        3.261887   -1.710195    0.840183
     37          1           0        5.505964   -1.049374   -1.124763
     38          1           0        5.679252   -2.094690    0.284887
     39          1           0        3.562913    0.647761    1.650389
     40          1           0        5.042643   -0.296222    1.889102
     41          1           0        4.929965    0.852962    0.537547
     42          1           0        0.400887    2.230793    1.554839
     43          1           0       -1.058127    3.146039    1.914625
     44          1           0       -2.326235    0.423154   -1.665184
     45          1           0       -1.628357   -3.236001   -0.200052
     46          1           0       -1.386544   -1.979504   -1.430984
     47          1           0       -3.483875   -2.014921    0.794982
     48          1           0       -6.140331   -1.021423   -1.673041
     49          1           0       -5.864328   -1.360910    0.047925
     50          1           0       -5.241434    0.126757   -0.653887
     51          1           0       -3.026618   -2.825254   -2.587359
     52          1           0       -4.740238   -2.358668   -3.084262
     53          1           0        0.650403    3.766060   -2.984710
     54          1           0       -0.911814    4.328673   -2.355632
     55          1           0       -0.727561    2.642835   -2.892117
     56          1           0        1.755046    4.596334   -0.932339
     57          1           0        0.236783    5.085782   -0.156907
     58          1           0        1.342882    3.969221    0.670543
     59          1           0       -0.045861    0.679378    5.040813
     60          1           0        0.290674    2.021958    3.936144
     61          1           0       -1.352190    1.754904    4.510076
     62          6           0        4.500334   -2.957089   -1.313324
     63          1           0        3.850340   -2.635972   -2.134297
     64          1           0        5.354728   -3.485570   -1.752155
     65          1           0        3.933598   -3.668804   -0.703131
 ---------------------------------------------------------------------

 The electronic state is 1-A.
 Alpha  occ. eigenvalues --  -19.19768 -19.16776 -19.15831 -19.12716 -19.11967
 Alpha  occ. eigenvalues --  -10.27569 -10.27182 -10.26708 -10.25937 -10.25871
 Alpha  occ. eigenvalues --  -10.25852 -10.25227 -10.21399 -10.20814 -10.20685
 Alpha  occ. eigenvalues --  -10.20583 -10.20133 -10.19715 -10.19515 -10.19147
 Alpha  occ. eigenvalues --  -10.19096 -10.19057 -10.18924 -10.18896 -10.18853
 Alpha  occ. eigenvalues --  -10.18457 -10.18033 -10.17396 -10.16994 -10.16272
 Alpha  occ. eigenvalues --  -10.15095  -1.09457  -1.05991  -1.02933  -1.02511
 Alpha  occ. eigenvalues --   -1.01870  -0.86833  -0.83682  -0.82435  -0.81447
 Alpha  occ. eigenvalues --   -0.80349  -0.78863  -0.76699  -0.74390  -0.73289
 Alpha  occ. eigenvalues --   -0.71879  -0.71089  -0.69977  -0.69524  -0.68001
 Alpha  occ. eigenvalues --   -0.65298  -0.63645  -0.63428  -0.61507  -0.60704
 Alpha  occ. eigenvalues --   -0.59507  -0.58592  -0.56986  -0.54613  -0.53533
 Alpha  occ. eigenvalues --   -0.52769  -0.51870  -0.50863  -0.50419  -0.49318
 Alpha  occ. eigenvalues --   -0.48348  -0.47774  -0.46729  -0.46365  -0.45813
 Alpha  occ. eigenvalues --   -0.45289  -0.44576  -0.43560  -0.43479  -0.43229
 Alpha  occ. eigenvalues --   -0.42537  -0.42029  -0.41848  -0.41576  -0.41261
 Alpha  occ. eigenvalues --   -0.40808  -0.40692  -0.40449  -0.40041  -0.39583
 Alpha  occ. eigenvalues --   -0.39309  -0.39120  -0.38402  -0.38193  -0.37811
 Alpha  occ. eigenvalues --   -0.37670  -0.37448  -0.37232  -0.37002  -0.36785
 Alpha  occ. eigenvalues --   -0.36276  -0.35452  -0.34857  -0.34712  -0.34001
 Alpha  occ. eigenvalues --   -0.33729  -0.33617  -0.32825  -0.32134  -0.32062
 Alpha  occ. eigenvalues --   -0.31431  -0.30921  -0.30475  -0.28116  -0.26690
 Alpha  occ. eigenvalues --   -0.26375  -0.24720  -0.24309  -0.23475  -0.22363
 Alpha virt. eigenvalues --   -0.05057  -0.01378   0.00298   0.01846   0.06146
 Alpha virt. eigenvalues --    0.07649   0.07930   0.08883   0.09332   0.10305
 Alpha virt. eigenvalues --    0.10574   0.10875   0.11526   0.12121   0.12606

 Mulliken atomic charges:
              1
     1  C   -0.191031
     2  C    0.190979
     3  C   -0.187980
     4  C    0.322941
     5  C   -0.051939
     6  C   -0.334161
     7  C    0.198037
     8  C    0.406652
     9  C   -0.085832
    10  C    0.417090
    11  C    0.424650
    12  O   -0.465616
    13  C   -0.150512
    14  C   -0.247514
    15  C   -0.454659
    16  O   -0.514474
    17  C   -0.162104
    18  C    0.298962
    19  O   -0.503350
    20  C   -0.322479
    21  O   -0.653207
    22  C   -0.324421
    23  C    0.094184
    24  O   -0.591358
    25  C    0.182310
    26  C   -0.507653
    27  C   -0.393206
    28  C   -0.467501
    29  C   -0.459741
    30  H    0.145074
    31  H    0.165285
    32  C   -0.519386
    33  H    0.122702
    34  H    0.147685
    35  H    0.182295
    36  H    0.154108
    37  H    0.149458
    38  H    0.120524
    39  H    0.136349
    40  H    0.146131
    41  H    0.159728
    42  H    0.161945
    43  H    0.152043
    44  H    0.414121
    45  H    0.168686
    46  H    0.172886
    47  H    0.138069
    48  H    0.154808
    49  H    0.155922
    50  H    0.170452
    51  H    0.154772
    52  H    0.142822
    53  H    0.163877
    54  H    0.141560
    55  H    0.194879
    56  H    0.169334
    57  H    0.150692
    58  H    0.158928
    59  H    0.158206
    60  H    0.156235
    61  H    0.152100
    62  C   -0.450351
    63  H    0.155214
    64  H    0.131847
    65  H    0.153933
 Sum of Mulliken atomic charges =   0.00000

 Dipole moment (field-independent basis, Debye):
    X=             -5.0475    Y=              2.8069    Z=              3.2181  Tot=              6.6115
 Quadrupole moment (field-independent basis, Debye-Ang):
   XX=           -185.5507   YY=           -176.2070   ZZ=           -185.6704
   XY=              3.3491   XZ=              9.8293   YZ=              1.3831

 Normal termination of Gaussian 09 at Wed Mar 24 13:48:55 2021.
