 Gaussian 09, Revision B.01,
 Gaussian 09:  EM64L-G09RevB.01 12-Aug-2010

 ---------------------------------------
 # opt rb3lyp/6-31g(d) geom=connectivity
 ---------------------------------------

 -------------------
 Title Card Required
 -------------------
 Symbolic Z-matrix:
 Charge =  0 Multiplicity = 1

 SCF Done:  E(RB3LYP) =  -1387.30443044     A.U. after   16 cycles
 SCF Done:  E(RB3LYP) =  -1387.31692381     A.U. after   13 cycles
 SCF Done:  E(RB3LYP) =  -1387.31938540     A.U. after   13 cycles
 SCF Done:  E(RB3LYP) =  -1387.31927444     A.U. after   13 cycles
 SCF Done:  E(RB3LYP) =  -1387.32085223     A.U. after   13 cycles
 SCF Done:  E(RB3LYP) =  -1387.32086614     A.U. after   13 cycles
 SCF Done:  E(RB3LYP) =  -1387.32107360     A.U. after   12 cycles
 SCF Done:  E(RB3LYP) =  -1387.32120454     A.U. after   12 cycles
 SCF Done:  E(RB3LYP) =  -1387.32125144     A.U. after   11 cycles
 SCF Done:  E(RB3LYP) =  -1387.32127675     A.U. after   11 cycles
 SCF Done:  E(RB3LYP) =  -1387.32129651     A.U. after   12 cycles
 SCF Done:  E(RB3LYP) =  -1387.32131386     A.U. after   11 cycles
 SCF Done:  E(RB3LYP) =  -1387.32132283     A.U. after   12 cycles
 SCF Done:  E(RB3LYP) =  -1387.32132419     A.U. after   10 cycles
 SCF Done:  E(RB3LYP) =  -1387.32132595     A.U. after   10 cycles
 SCF Done:  E(RB3LYP) =  -1387.32132532     A.U. after    8 cycles
 SCF Done:  E(RB3LYP) =  -1387.32132571     A.U. after    7 cycles
 SCF Done:  E(RB3LYP) =  -1387.32132579     A.U. after    6 cycles
 Optimization completed.
    -- Stationary point found.

                         Standard orientation:
 ---------------------------------------------------------------------
 Center     Atomic      Atomic             Coordinates (Angstroms)
 Number     Number       Type             X           Y           Z
 ---------------------------------------------------------------------
      1          6           0       -1.494603    0.108236    3.229385
      2          6           0       -1.764472    1.282226    2.646725
      3          6           0       -1.987909    1.384921    1.152443
      4          6           0       -1.584117    0.129415    0.319033
      5          6           0       -0.885585   -1.051415    1.038929
      6          6           0       -1.389182   -1.199401    2.493849
      7          6           0       -0.746839    0.698565   -0.855327
      8          6           0        0.732545    0.806232   -0.536878
      9          6           0        1.419151   -0.064938    0.250188
     10          6           0        0.668098   -1.033603    1.054424
     11          6           0        2.913467    0.049422    0.426385
     12          8           0        3.435338    1.140218    0.586438
     13          6           0        3.768126   -1.217594    0.319122
     14          6           0        4.631071   -1.089609   -0.960996
     15          6           0        4.604761   -1.384033    1.598144
     16          8           0        1.241142   -1.835716    1.788874
     17          6           0       -1.071672    2.201264   -0.993147
     18          6           0        0.198002    2.762596   -1.677870
     19          8           0        1.262822    1.865641   -1.147609
     20          6           0       -1.286714    2.601886    0.481028
     21          8           0       -0.863198   -0.074953   -2.035280
     22          6           0       -1.353429   -2.257481    0.183584
     23          6           0       -2.795929   -1.872104   -0.181048
     24          8           0       -2.792013   -0.434286   -0.252934
     25          6           0       -3.337626   -2.490084   -1.453389
     26          6           0       -3.239613   -3.993999   -1.529317
     27          6           0       -3.911156   -1.756962   -2.413579
     28          6           0        0.174333    2.612894   -3.200405
     29          6           0        0.607229    4.177425   -1.277382
     30          1           0       -1.968352    2.371691   -1.597113
     31          1           0       -3.068215    1.493585    0.979005
     32          6           0       -1.932968    2.549144    3.448521
     33          1           0       -1.377649    0.070831    4.311642
     34          1           0       -2.372705   -1.692753    2.496896
     35          1           0       -0.703957   -1.879338    3.007763
     36          1           0        3.107930   -2.083778    0.215221
     37          1           0        3.972446   -0.854660   -1.809103
     38          1           0        5.299504   -0.227832   -0.845240
     39          1           0        5.250296   -2.266019    1.535899
     40          1           0        3.947831   -1.509742    2.464208
     41          1           0        5.232182   -0.501170    1.760093
     42          1           0       -1.868176    3.522135    0.587070
     43          1           0       -0.319419    2.775167    0.965314
     44          1           0       -1.796365   -0.362481   -2.068729
     45          1           0       -1.286608   -3.196019    0.740170
     46          1           0       -0.745593   -2.344113   -0.722529
     47          1           0       -3.470053   -2.164043    0.641022
     48          1           0       -2.195691   -4.332088   -1.534168
     49          1           0       -3.719730   -4.465678   -0.660889
     50          1           0       -3.725029   -4.376079   -2.431677
     51          1           0       -4.025577   -0.681834   -2.320190
     52          1           0       -4.308405   -2.220171   -3.312738
     53          1           0       -0.103171    1.597681   -3.488980
     54          1           0        1.162213    2.846017   -3.610746
     55          1           0       -0.549121    3.313953   -3.632463
     56          1           0       -0.157273    4.892162   -1.602089
     57          1           0        1.552260    4.443341   -1.760823
     58          1           0        0.741707    4.274610   -0.197952
     59          1           0       -1.824125    2.354762    4.519868
     60          1           0       -1.197282    3.314921    3.171001
     61          1           0       -2.925409    2.993181    3.284566
     62          6           0        5.436882   -2.348242   -1.299230
     63          1           0        4.782164   -3.221582   -1.411083
     64          1           0        6.175778   -2.583268   -0.525737
     65          1           0        5.979751   -2.217183   -2.242546
 ---------------------------------------------------------------------

 The electronic state is 1-A.
 Alpha  occ. eigenvalues --  -19.19601 -19.16676 -19.15861 -19.12643 -19.12109
 Alpha  occ. eigenvalues --  -10.27429 -10.27147 -10.26616 -10.25992 -10.25807
 Alpha  occ. eigenvalues --  -10.25764 -10.25364 -10.21323 -10.21007 -10.20616
 Alpha  occ. eigenvalues --  -10.20329 -10.19875 -10.19856 -10.19473 -10.19359
 Alpha  occ. eigenvalues --  -10.19100 -10.18784 -10.18723 -10.18518 -10.18464
 Alpha  occ. eigenvalues --  -10.18121 -10.18099 -10.17416 -10.17084 -10.16474
 Alpha  occ. eigenvalues --  -10.15611  -1.09313  -1.06049  -1.02889  -1.02622
 Alpha  occ. eigenvalues --   -1.01955  -0.86757  -0.83599  -0.82474  -0.81363
 Alpha  occ. eigenvalues --   -0.80269  -0.78937  -0.76653  -0.74321  -0.73168
 Alpha  occ. eigenvalues --   -0.71748  -0.71077  -0.69893  -0.69665  -0.67960
 Alpha  occ. eigenvalues --   -0.65289  -0.64064  -0.63211  -0.61798  -0.60636
 Alpha  occ. eigenvalues --   -0.59418  -0.58128  -0.56895  -0.54441  -0.53909
 Alpha  occ. eigenvalues --   -0.52636  -0.52103  -0.50738  -0.50331  -0.49218
 Alpha  occ. eigenvalues --   -0.47981  -0.47452  -0.46727  -0.46209  -0.45847
 Alpha  occ. eigenvalues --   -0.44979  -0.44499  -0.44102  -0.43427  -0.43260
 Alpha  occ. eigenvalues --   -0.43096  -0.42261  -0.41889  -0.41539  -0.41256
 Alpha  occ. eigenvalues --   -0.40907  -0.40787  -0.40420  -0.40021  -0.39348
 Alpha  occ. eigenvalues --   -0.39058  -0.38764  -0.38675  -0.38067  -0.37602
 Alpha  occ. eigenvalues --   -0.37446  -0.37191  -0.36992  -0.36887  -0.36643
 Alpha  occ. eigenvalues --   -0.36251  -0.35088  -0.34827  -0.34471  -0.34364
 Alpha  occ. eigenvalues --   -0.33877  -0.33762  -0.33433  -0.32771  -0.31926
 Alpha  occ. eigenvalues --   -0.31222  -0.30953  -0.30489  -0.28340  -0.26483
 Alpha  occ. eigenvalues --   -0.26068  -0.24592  -0.23971  -0.23428  -0.22362
 Alpha virt. eigenvalues --   -0.04795  -0.00997   0.00824   0.02224   0.06053
 Alpha virt. eigenvalues --    0.07267   0.08295   0.08886   0.09522   0.09984
 Alpha virt. eigenvalues --    0.10693   0.10907   0.11336   0.12090   0.12579

 Mulliken atomic charges:
              1
     1  C   -0.187627
     2  C    0.193089
     3  C   -0.189309
     4  C    0.321841
     5  C   -0.052795
     6  C   -0.332201
     7  C    0.196912
     8  C    0.402597
     9  C   -0.098804
    10  C    0.422616
    11  C    0.421256
    12  O   -0.465411
    13  C   -0.129664
    14  C   -0.254245
    15  C   -0.460129
    16  O   -0.513550
    17  C   -0.164731
    18  C    0.301712
    19  O   -0.506569
    20  C   -0.324744
    21  O   -0.661723
    22  C   -0.325866
    23  C    0.106919
    24  O   -0.589642
    25  C    0.186187
    26  C   -0.519360
    27  C   -0.408858
    28  C   -0.469316
    29  C   -0.456883
    30  H    0.142990
    31  H    0.166470
    32  C   -0.520146
    33  H    0.122765
    34  H    0.144850
    35  H    0.184461
    36  H    0.138572
    37  H    0.132047
    38  H    0.151398
    39  H    0.139311
    40  H    0.164882
    41  H    0.156723
    42  H    0.151492
    43  H    0.171853
    44  H    0.416327
    45  H    0.165094
    46  H    0.172287
    47  H    0.146229
    48  H    0.169664
    49  H    0.159259
    50  H    0.162039
    51  H    0.153805
    52  H    0.139952
    53  H    0.191444
    54  H    0.159509
    55  H    0.143000
    56  H    0.148071
    57  H    0.167753
    58  H    0.167000
    59  H    0.158161
    60  H    0.159153
    61  H    0.150301
    62  C   -0.448233
    63  H    0.140354
    64  H    0.147992
    65  H    0.141469
 Sum of Mulliken atomic charges =   0.00000

 Dipole moment (field-independent basis, Debye):
    X=             -5.1355    Y=              0.6631    Z=             -1.6825  Tot=              5.4446
 Quadrupole moment (field-independent basis, Debye-Ang):
   XX=           -191.3718   YY=           -170.9747   ZZ=           -182.6926
   XY=             -1.7028   XZ=             -3.6387   YZ=              0.1127

 Normal termination of Gaussian 09 at Wed Mar 24 13:55:49 2021.
