 Gaussian 09, Revision B.01,
 Gaussian 09:  EM64L-G09RevB.01 12-Aug-2010

 ---------------------------------------
 # opt rb3lyp/6-31g(d) geom=connectivity
 ---------------------------------------

 -------------------
 Title Card Required
 -------------------
 Symbolic Z-matrix:
 Charge =  0 Multiplicity = 1

 SCF Done:  E(RB3LYP) =  -1387.30263909     A.U. after   16 cycles
 SCF Done:  E(RB3LYP) =  -1387.31474860     A.U. after   13 cycles
 SCF Done:  E(RB3LYP) =  -1387.31688182     A.U. after   13 cycles
 SCF Done:  E(RB3LYP) =  -1387.31588621     A.U. after   13 cycles
 SCF Done:  E(RB3LYP) =  -1387.31787898     A.U. after   13 cycles
 SCF Done:  E(RB3LYP) =  -1387.31807770     A.U. after   12 cycles
 SCF Done:  E(RB3LYP) =  -1387.31839228     A.U. after   12 cycles
 SCF Done:  E(RB3LYP) =  -1387.31857428     A.U. after   13 cycles
 SCF Done:  E(RB3LYP) =  -1387.31873179     A.U. after   14 cycles
 SCF Done:  E(RB3LYP) =  -1387.31892351     A.U. after   13 cycles
 SCF Done:  E(RB3LYP) =  -1387.31889914     A.U. after   14 cycles
 SCF Done:  E(RB3LYP) =  -1387.31891532     A.U. after   13 cycles
 SCF Done:  E(RB3LYP) =  -1387.31894943     A.U. after   13 cycles
 SCF Done:  E(RB3LYP) =  -1387.31938600     A.U. after   12 cycles
 SCF Done:  E(RB3LYP) =  -1387.31939077     A.U. after   10 cycles
 SCF Done:  E(RB3LYP) =  -1387.31939289     A.U. after   10 cycles
 SCF Done:  E(RB3LYP) =  -1387.31939368     A.U. after   10 cycles
 SCF Done:  E(RB3LYP) =  -1387.31939377     A.U. after    7 cycles
 SCF Done:  E(RB3LYP) =  -1387.31939374     A.U. after    6 cycles
 SCF Done:  E(RB3LYP) =  -1387.31939375     A.U. after    6 cycles
 Optimization completed.
    -- Stationary point found.

                         Standard orientation:
 ---------------------------------------------------------------------
 Center     Atomic      Atomic             Coordinates (Angstroms)
 Number     Number       Type             X           Y           Z
 ---------------------------------------------------------------------
      1          6           0       -1.747768    0.985880    2.848447
      2          6           0       -2.221296    1.914119    2.008135
      3          6           0       -1.818686    1.882454    0.551066
      4          6           0       -1.516772    0.468257   -0.046689
      5          6           0       -1.245473   -0.670121    0.983221
      6          6           0       -0.850685   -0.134342    2.392103
      7          6           0       -0.345694    0.723268   -1.065439
      8          6           0        1.005168    0.256371   -0.552390
      9          6           0        1.182986   -0.902983    0.128712
     10          6           0       -0.071781   -1.596341    0.544355
     11          6           0        2.489286   -1.479332    0.576698
     12          8           0        2.530631   -2.157862    1.593503
     13          6           0        3.756122   -1.233346   -0.251535
     14          6           0        4.690193   -0.204583    0.444328
     15          6           0        4.453469   -2.577156   -0.523326
     16          8           0       -0.153574   -2.806542    0.647253
     17          6           0       -0.109352    2.247383   -1.152451
     18          6           0        1.391596    2.355144   -1.502644
     19          8           0        1.966048    1.137110   -0.868533
     20          6           0       -0.558196    2.732526    0.237738
     21          8           0       -0.579579    0.087685   -2.306459
     22          6           0       -2.579040   -1.444929    1.047675
     23          6           0       -3.417454   -0.997128   -0.168570
     24          8           0       -2.627419    0.024336   -0.833932
     25          6           0       -3.778789   -2.083072   -1.161533
     26          6           0       -2.660573   -2.886729   -1.779152
     27          6           0       -5.066028   -2.308671   -1.443639
     28          6           0        1.645921    2.250703   -3.008271
     29          6           0        2.138389    3.538136   -0.895337
     30          1           0       -0.729189    2.689316   -1.938380
     31          1           0       -2.640600    2.276220   -0.061531
     32          6           0       -3.115438    3.043230    2.449147
     33          1           0       -2.005449    1.029134    3.905627
     34          1           0        0.198081    0.193487    2.384856
     35          1           0       -0.888834   -0.973427    3.095559
     36          1           0        3.463158   -0.792320   -1.209799
     37          1           0        5.492563    0.032827   -0.268318
     38          1           0        4.131485    0.728113    0.590393
     39          1           0        3.823113   -3.227099   -1.140437
     40          1           0        5.397770   -2.415583   -1.056788
     41          1           0        4.662106   -3.105910    0.409935
     42          1           0        0.212937    2.529051    0.990423
     43          1           0       -0.764504    3.806805    0.270851
     44          1           0       -1.544421   -0.086121   -2.308198
     45          1           0       -3.115936   -1.207394    1.969411
     46          1           0       -2.371678   -2.517053    1.046913
     47          1           0       -4.343025   -0.515198    0.167887
     48          1           0       -1.918305   -2.242295   -2.263537
     49          1           0       -2.111688   -3.462653   -1.024775
     50          1           0       -3.048479   -3.583821   -2.527530
     51          1           0       -5.863223   -1.722566   -0.992323
     52          1           0       -5.371952   -3.093437   -2.130902
     53          1           0        2.717323    2.131511   -3.199632
     54          1           0        1.307407    3.164624   -3.509570
     55          1           0        1.108553    1.401039   -3.435653
     56          1           0        3.203623    3.477323   -1.139932
     57          1           0        1.747854    4.475808   -1.305616
     58          1           0        2.038860    3.567717    0.192602
     59          1           0       -3.320202    2.998270    3.523466
     60          1           0       -2.664851    4.021892    2.232783
     61          1           0       -4.076452    3.018964    1.916746
     62          6           0        5.310028   -0.646418    1.774759
     63          1           0        5.963316   -1.516279    1.647152
     64          1           0        5.917969    0.163628    2.195081
     65          1           0        4.543015   -0.916313    2.506122
 ---------------------------------------------------------------------

 The electronic state is 1-A.
 Alpha  occ. eigenvalues --  -19.20253 -19.16844 -19.15423 -19.13290 -19.12100
 Alpha  occ. eigenvalues --  -10.27282 -10.27149 -10.27136 -10.26250 -10.26166
 Alpha  occ. eigenvalues --  -10.26163 -10.24613 -10.21343 -10.20798 -10.20549
 Alpha  occ. eigenvalues --  -10.20483 -10.19968 -10.19729 -10.19662 -10.19588
 Alpha  occ. eigenvalues --  -10.19161 -10.19146 -10.18826 -10.18675 -10.18449
 Alpha  occ. eigenvalues --  -10.18190 -10.17932 -10.17601 -10.17432 -10.16369
 Alpha  occ. eigenvalues --  -10.15903  -1.09534  -1.06206  -1.03518  -1.02329
 Alpha  occ. eigenvalues --   -1.01831  -0.87111  -0.84071  -0.82108  -0.81247
 Alpha  occ. eigenvalues --   -0.80012  -0.79227  -0.76950  -0.73854  -0.73184
 Alpha  occ. eigenvalues --   -0.72268  -0.71291  -0.70510  -0.68771  -0.68187
 Alpha  occ. eigenvalues --   -0.65317  -0.64319  -0.63299  -0.61946  -0.60748
 Alpha  occ. eigenvalues --   -0.59101  -0.58602  -0.56714  -0.54865  -0.53392
 Alpha  occ. eigenvalues --   -0.53127  -0.51826  -0.51030  -0.49803  -0.49078
 Alpha  occ. eigenvalues --   -0.48026  -0.47313  -0.47072  -0.46669  -0.46148
 Alpha  occ. eigenvalues --   -0.45009  -0.44567  -0.44446  -0.44085  -0.43229
 Alpha  occ. eigenvalues --   -0.43007  -0.42505  -0.42205  -0.41389  -0.41184
 Alpha  occ. eigenvalues --   -0.41005  -0.40545  -0.40371  -0.39869  -0.39566
 Alpha  occ. eigenvalues --   -0.39367  -0.38859  -0.38673  -0.38115  -0.37913
 Alpha  occ. eigenvalues --   -0.37536  -0.37344  -0.37037  -0.36486  -0.36057
 Alpha  occ. eigenvalues --   -0.35900  -0.35813  -0.35390  -0.34887  -0.34559
 Alpha  occ. eigenvalues --   -0.33722  -0.33518  -0.33294  -0.33109  -0.32176
 Alpha  occ. eigenvalues --   -0.31496  -0.31381  -0.30898  -0.27756  -0.27624
 Alpha  occ. eigenvalues --   -0.25206  -0.24788  -0.24396  -0.23612  -0.22374
 Alpha virt. eigenvalues --   -0.04756  -0.01898   0.00900   0.01481   0.05286
 Alpha virt. eigenvalues --    0.07293   0.07873   0.08382   0.09599   0.10019
 Alpha virt. eigenvalues --    0.10536   0.10594   0.10995   0.12009   0.12844

 Mulliken atomic charges:
              1
     1  C   -0.196896
     2  C    0.202295
     3  C   -0.201835
     4  C    0.324587
     5  C   -0.037740
     6  C   -0.325456
     7  C    0.195738
     8  C    0.389913
     9  C   -0.088785
    10  C    0.412360
    11  C    0.431927
    12  O   -0.470763
    13  C   -0.146486
    14  C   -0.264276
    15  C   -0.453163
    16  O   -0.463776
    17  C   -0.155871
    18  C    0.298538
    19  O   -0.531624
    20  C   -0.307586
    21  O   -0.667290
    22  C   -0.351695
    23  C    0.095501
    24  O   -0.589304
    25  C    0.223269
    26  C   -0.539134
    27  C   -0.403389
    28  C   -0.467337
    29  C   -0.462496
    30  H    0.148301
    31  H    0.148153
    32  C   -0.520835
    33  H    0.126225
    34  H    0.165763
    35  H    0.168737
    36  H    0.136068
    37  H    0.129915
    38  H    0.139622
    39  H    0.149914
    40  H    0.135458
    41  H    0.173678
    42  H    0.159491
    43  H    0.151952
    44  H    0.431421
    45  H    0.152763
    46  H    0.196268
    47  H    0.130341
    48  H    0.159485
    49  H    0.191277
    50  H    0.151727
    51  H    0.136950
    52  H    0.140266
    53  H    0.157208
    54  H    0.146432
    55  H    0.194965
    56  H    0.164926
    57  H    0.153267
    58  H    0.161564
    59  H    0.158354
    60  H    0.154405
    61  H    0.156830
    62  C   -0.446822
    63  H    0.145002
    64  H    0.131502
    65  H    0.170203
 Sum of Mulliken atomic charges =   0.00000

 Dipole moment (field-independent basis, Debye):
    X=             -2.2781    Y=              6.2239    Z=             -1.0828  Tot=              6.7156
 Quadrupole moment (field-independent basis, Debye-Ang):
   XX=           -179.4303   YY=           -185.0340   ZZ=           -184.8554
   XY=              6.3544   XZ=             -8.7621   YZ=              4.4464

 Normal termination of Gaussian 09 at Wed Mar 24 17:08:46 2021.
