 Gaussian 09, Revision B.01,
 Gaussian 09:  EM64L-G09RevB.01 12-Aug-2010

 ---------------------------------------
 # opt rb3lyp/6-31g(d) geom=connectivity
 ---------------------------------------

 -------------------
 Title Card Required
 -------------------
 Symbolic Z-matrix:
 Charge =  0 Multiplicity = 1

 SCF Done:  E(RB3LYP) =  -1387.30143595     A.U. after   15 cycles
 SCF Done:  E(RB3LYP) =  -1387.31393183     A.U. after   13 cycles
 SCF Done:  E(RB3LYP) =  -1387.31660026     A.U. after   13 cycles
 SCF Done:  E(RB3LYP) =  -1387.31750373     A.U. after   13 cycles
 SCF Done:  E(RB3LYP) =  -1387.31514585     A.U. after   16 cycles
 SCF Done:  E(RB3LYP) =  -1387.31808107     A.U. after   15 cycles
 SCF Done:  E(RB3LYP) =  -1387.31854359     A.U. after   13 cycles
 SCF Done:  E(RB3LYP) =  -1387.31848932     A.U. after   13 cycles
 SCF Done:  E(RB3LYP) =  -1387.31930490     A.U. after   13 cycles
 SCF Done:  E(RB3LYP) =  -1387.31954314     A.U. after   13 cycles
 SCF Done:  E(RB3LYP) =  -1387.31965946     A.U. after   13 cycles
 SCF Done:  E(RB3LYP) =  -1387.31972016     A.U. after   11 cycles
 SCF Done:  E(RB3LYP) =  -1387.31978540     A.U. after   13 cycles
 SCF Done:  E(RB3LYP) =  -1387.31982114     A.U. after   16 cycles
 SCF Done:  E(RB3LYP) =  -1387.31983602     A.U. after   11 cycles
 SCF Done:  E(RB3LYP) =  -1387.31983884     A.U. after   16 cycles
 SCF Done:  E(RB3LYP) =  -1387.31984120     A.U. after   16 cycles
 SCF Done:  E(RB3LYP) =  -1387.31984140     A.U. after    7 cycles
 SCF Done:  E(RB3LYP) =  -1387.31984148     A.U. after    7 cycles
 Optimization completed.
    -- Stationary point found.

                         Standard orientation:
 ---------------------------------------------------------------------
 Center     Atomic      Atomic             Coordinates (Angstroms)
 Number     Number       Type             X           Y           Z
 ---------------------------------------------------------------------
      1          6           0       -2.120452    0.438593    2.728163
      2          6           0       -2.680288    1.334627    1.906094
      3          6           0       -2.105338    1.555427    0.525632
      4          6           0       -1.380595    0.329681   -0.120216
      5          6           0       -0.949507   -0.824504    0.843223
      6          6           0       -0.917442   -0.377931    2.335737
      7          6           0       -0.204743    0.951854   -0.931160
      8          6           0        1.141074    0.805220   -0.227441
      9          6           0        1.549088   -0.362116    0.356375
     10          6           0        0.484403   -1.371155    0.543893
     11          6           0        2.970529   -0.544053    0.814542
     12          8           0        3.651199    0.441263    1.064866
     13          6           0        3.557367   -1.952558    0.918281
     14          6           0        3.738140   -2.558042   -0.501803
     15          6           0        4.854331   -1.942867    1.734645
     16          8           0        0.687785   -2.576186    0.630022
     17          6           0       -0.364239    2.486553   -0.911543
     18          6           0        1.090308    2.990074   -1.030012
     19          8           0        1.863920    1.910379   -0.359229
     20          6           0       -1.086045    2.721806    0.430731
     21          8           0       -0.079098    0.377484   -2.215894
     22          6           0       -2.010926   -1.927207    0.595683
     23          6           0       -2.995305   -1.326607   -0.427643
     24          8           0       -2.249872   -0.288898   -1.079713
     25          6           0       -3.571182   -2.304308   -1.424662
     26          6           0       -4.377881   -3.422256   -0.810052
     27          6           0       -3.404929   -2.178324   -2.743086
     28          6           0        1.570015    3.062078   -2.481819
     29          6           0        1.424836    4.271976   -0.274226
     30          1           0       -0.975132    2.825437   -1.753267
     31          1           0       -2.924561    1.787198   -0.168699
     32          6           0       -3.861060    2.183821    2.299237
     33          1           0       -2.518962    0.301912    3.732309
     34          1           0       -0.837191   -1.276636    2.957228
     35          1           0       -0.001321    0.198767    2.526587
     36          1           0        2.816447   -2.585951    1.416769
     37          1           0        2.752419   -2.635196   -0.972871
     38          1           0        4.096019   -3.588703   -0.375005
     39          1           0        5.603009   -1.276778    1.298480
     40          1           0        4.671724   -1.594791    2.756900
     41          1           0        5.272397   -2.954941    1.788098
     42          1           0       -0.380563    2.660263    1.268018
     43          1           0       -1.570294    3.701306    0.489377
     44          1           0       -0.880691   -0.172358   -2.326568
     45          1           0       -1.515249   -2.816701    0.199453
     46          1           0       -2.522663   -2.214217    1.518119
     47          1           0       -3.832455   -0.853256    0.112178
     48          1           0       -5.196340   -3.028836   -0.191188
     49          1           0       -4.814871   -4.062412   -1.581499
     50          1           0       -3.762060   -4.052418   -0.155360
     51          1           0       -3.837720   -2.897723   -3.433081
     52          1           0       -2.846142   -1.357939   -3.179555
     53          1           0        2.652832    3.220191   -2.508113
     54          1           0        1.086898    3.902226   -2.993704
     55          1           0        1.330355    2.142565   -3.020671
     56          1           0        1.177561    4.196639    0.787496
     57          1           0        2.494441    4.486875   -0.358235
     58          1           0        0.870477    5.113610   -0.703966
     59          1           0       -4.194212    1.963331    3.318279
     60          1           0       -3.619272    3.254520    2.248877
     61          1           0       -4.709718    2.024316    1.619596
     62          6           0        4.697575   -1.793993   -1.421862
     63          1           0        5.714690   -1.762746   -1.016097
     64          1           0        4.749083   -2.276278   -2.404914
     65          1           0        4.373206   -0.758354   -1.575672
 ---------------------------------------------------------------------

 The electronic state is 1-A.
 Alpha  occ. eigenvalues --  -19.19885 -19.17285 -19.15259 -19.13301 -19.11405
 Alpha  occ. eigenvalues --  -10.27369 -10.27313 -10.26635 -10.26318 -10.26096
 Alpha  occ. eigenvalues --  -10.25654 -10.25047 -10.21599 -10.20694 -10.20610
 Alpha  occ. eigenvalues --  -10.20432 -10.20208 -10.20176 -10.20017 -10.19307
 Alpha  occ. eigenvalues --  -10.19067 -10.18973 -10.18966 -10.18963 -10.18790
 Alpha  occ. eigenvalues --  -10.18195 -10.17831 -10.17114 -10.16709 -10.15708
 Alpha  occ. eigenvalues --  -10.15387  -1.09544  -1.06860  -1.03326  -1.02533
 Alpha  occ. eigenvalues --   -1.01412  -0.87174  -0.83795  -0.82228  -0.81414
 Alpha  occ. eigenvalues --   -0.80159  -0.78713  -0.76718  -0.74088  -0.73202
 Alpha  occ. eigenvalues --   -0.72200  -0.70646  -0.70112  -0.69134  -0.68490
 Alpha  occ. eigenvalues --   -0.65314  -0.63892  -0.63713  -0.61486  -0.60877
 Alpha  occ. eigenvalues --   -0.59142  -0.58281  -0.56872  -0.54732  -0.53492
 Alpha  occ. eigenvalues --   -0.52814  -0.51756  -0.51141  -0.49988  -0.49388
 Alpha  occ. eigenvalues --   -0.47979  -0.47135  -0.46679  -0.46573  -0.46009
 Alpha  occ. eigenvalues --   -0.45245  -0.44460  -0.44171  -0.43606  -0.43156
 Alpha  occ. eigenvalues --   -0.42748  -0.42465  -0.42324  -0.41862  -0.41672
 Alpha  occ. eigenvalues --   -0.40872  -0.40462  -0.40281  -0.40046  -0.39640
 Alpha  occ. eigenvalues --   -0.39300  -0.39023  -0.38602  -0.38428  -0.37621
 Alpha  occ. eigenvalues --   -0.37228  -0.36859  -0.36722  -0.36427  -0.36327
 Alpha  occ. eigenvalues --   -0.35732  -0.35473  -0.35076  -0.34636  -0.34304
 Alpha  occ. eigenvalues --   -0.33875  -0.33675  -0.32962  -0.32798  -0.32495
 Alpha  occ. eigenvalues --   -0.31399  -0.30633  -0.30296  -0.28453  -0.27451
 Alpha  occ. eigenvalues --   -0.25224  -0.24653  -0.24306  -0.23432  -0.21990
 Alpha virt. eigenvalues --   -0.04875  -0.00810   0.00829   0.01822   0.05416
 Alpha virt. eigenvalues --    0.07027   0.08109   0.08757   0.09160   0.10128
 Alpha virt. eigenvalues --    0.10312   0.10790   0.11165   0.11318   0.12037

 Mulliken atomic charges:
              1
     1  C   -0.195186
     2  C    0.199342
     3  C   -0.199769
     4  C    0.309756
     5  C   -0.018746
     6  C   -0.329129
     7  C    0.192595
     8  C    0.403046
     9  C   -0.071504
    10  C    0.375366
    11  C    0.406289
    12  O   -0.472816
    13  C   -0.159613
    14  C   -0.263487
    15  C   -0.442176
    16  O   -0.488428
    17  C   -0.152302
    18  C    0.291007
    19  O   -0.488395
    20  C   -0.311279
    21  O   -0.671305
    22  C   -0.332267
    23  C    0.118705
    24  O   -0.587681
    25  C    0.182745
    26  C   -0.518274
    27  C   -0.394465
    28  C   -0.468562
    29  C   -0.459905
    30  H    0.149345
    31  H    0.150340
    32  C   -0.521627
    33  H    0.125535
    34  H    0.161173
    35  H    0.165760
    36  H    0.161841
    37  H    0.155684
    38  H    0.133208
    39  H    0.161500
    40  H    0.141499
    41  H    0.130111
    42  H    0.163757
    43  H    0.152566
    44  H    0.430077
    45  H    0.190766
    46  H    0.147366
    47  H    0.134943
    48  H    0.154031
    49  H    0.160929
    50  H    0.168636
    51  H    0.136756
    52  H    0.146007
    53  H    0.163237
    54  H    0.144778
    55  H    0.194632
    56  H    0.162525
    57  H    0.171093
    58  H    0.149352
    59  H    0.158407
    60  H    0.157027
    61  H    0.156135
    62  C   -0.448614
    63  H    0.145586
    64  H    0.137964
    65  H    0.154114
 Sum of Mulliken atomic charges =   0.00000

 Dipole moment (field-independent basis, Debye):
    X=             -5.5285    Y=              2.6600    Z=              0.1945  Tot=              6.1382
 Quadrupole moment (field-independent basis, Debye-Ang):
   XX=           -189.7014   YY=           -174.7704   ZZ=           -182.6183
   XY=              0.4325   XZ=             -7.3621   YZ=             -2.5487

 Normal termination of Gaussian 09 at Wed Mar 24 16:43:37 2021.
