 Gaussian 09, Revision B.01,
 Gaussian 09:  EM64L-G09RevB.01 12-Aug-2010

 ---------------------------------------
 # opt rb3lyp/6-31g(d) geom=connectivity
 ---------------------------------------

 -------------------
 Title Card Required
 -------------------
 Symbolic Z-matrix:
 Charge =  0 Multiplicity = 1

 SCF Done:  E(RB3LYP) =  -1387.30187885     A.U. after   16 cycles
 SCF Done:  E(RB3LYP) =  -1387.31533309     A.U. after   13 cycles
 SCF Done:  E(RB3LYP) =  -1387.31782537     A.U. after   13 cycles
 SCF Done:  E(RB3LYP) =  -1387.31674296     A.U. after   13 cycles
 SCF Done:  E(RB3LYP) =  -1387.31850778     A.U. after   13 cycles
 SCF Done:  E(RB3LYP) =  -1387.31895323     A.U. after   12 cycles
 SCF Done:  E(RB3LYP) =  -1387.31903697     A.U. after   13 cycles
 SCF Done:  E(RB3LYP) =  -1387.31913130     A.U. after   12 cycles
 SCF Done:  E(RB3LYP) =  -1387.31930913     A.U. after   11 cycles
 SCF Done:  E(RB3LYP) =  -1387.31940521     A.U. after   12 cycles
 SCF Done:  E(RB3LYP) =  -1387.31944147     A.U. after   11 cycles
 SCF Done:  E(RB3LYP) =  -1387.31944970     A.U. after   10 cycles
 SCF Done:  E(RB3LYP) =  -1387.31945573     A.U. after   10 cycles
 SCF Done:  E(RB3LYP) =  -1387.31945655     A.U. after    8 cycles
 SCF Done:  E(RB3LYP) =  -1387.31945686     A.U. after    8 cycles
 SCF Done:  E(RB3LYP) =  -1387.31945688     A.U. after    7 cycles
 Optimization completed.
    -- Stationary point found.

                         Standard orientation:
 ---------------------------------------------------------------------
 Center     Atomic      Atomic             Coordinates (Angstroms)
 Number     Number       Type             X           Y           Z
 ---------------------------------------------------------------------
      1          6           0       -1.742195    0.039833    3.041614
      2          6           0       -2.688989    0.661490    2.328757
      3          6           0       -2.477264    0.915055    0.854728
      4          6           0       -1.577736   -0.120480    0.106551
      5          6           0       -0.638200   -1.002855    0.982002
      6          6           0       -0.455200   -0.443723    2.428601
      7          6           0       -0.822407    0.736373   -0.968355
      8          6           0        0.628572    1.025067   -0.608574
      9          6           0        1.467825    0.098526   -0.051797
     10          6           0        0.815951   -1.134013    0.430487
     11          6           0        2.942606    0.345298    0.047513
     12          8           0        3.470675    1.202642   -0.647907
     13          6           0        3.788763   -0.401372    1.088851
     14          6           0        5.053148   -0.993665    0.435396
     15          6           0        4.159194    0.607164    2.195942
     16          8           0        1.409502   -2.200061    0.558010
     17          6           0       -1.408030    2.165464   -0.940109
     18          6           0       -0.224101    3.037882   -1.408228
     19          8           0        0.959217    2.265455   -0.938994
     20          6           0       -1.865555    2.301983    0.524221
     21          8           0       -0.820732    0.110279   -2.230952
     22          6           0       -1.355129   -2.367110    1.023025
     23          6           0       -2.256195   -2.421620   -0.213964
     24          8           0       -2.441561   -1.024818   -0.604685
     25          6           0       -1.818741   -3.219253   -1.432728
     26          6           0       -2.881412   -3.331129   -2.502398
     27          6           0       -0.616468   -3.786089   -1.567888
     28          6           0       -0.128212    3.126568   -2.932888
     29          6           0       -0.103310    4.415394   -0.764667
     30          1           0       -2.257807    2.250518   -1.624067
     31          1           0       -3.445577    0.858433    0.340230
     32          6           0       -3.973041    1.165129    2.933800
     33          1           0       -1.882546   -0.117628    4.109987
     34          1           0       -0.008422   -1.236373    3.039515
     35          1           0        0.281671    0.372000    2.415521
     36          1           0        3.208011   -1.214705    1.527420
     37          1           0        5.621638   -0.173960   -0.020455
     38          1           0        5.681503   -1.413455    1.232846
     39          1           0        4.774094    0.122174    2.962879
     40          1           0        3.267785    1.013611    2.689902
     41          1           0        4.723738    1.445720    1.775262
     42          1           0       -2.579433    3.117268    0.676754
     43          1           0       -1.011247    2.494208    1.184500
     44          1           0       -1.525015   -0.567832   -2.164591
     45          1           0       -1.983106   -2.415649    1.917199
     46          1           0       -0.627938   -3.177535    1.075619
     47          1           0       -3.258549   -2.772799    0.065148
     48          1           0       -3.763784   -3.866323   -2.123755
     49          1           0       -3.234930   -2.343034   -2.823885
     50          1           0       -2.511368   -3.864795   -3.382487
     51          1           0        0.162348   -3.710600   -0.817198
     52          1           0       -0.365962   -4.340165   -2.469572
     53          1           0       -0.210970    2.136418   -3.386644
     54          1           0        0.829640    3.571654   -3.219690
     55          1           0       -0.934479    3.759107   -3.321803
     56          1           0       -0.957307    5.037631   -1.053988
     57          1           0        0.811681    4.908848   -1.106364
     58          1           0       -0.070738    4.354963    0.326148
     59          1           0       -4.018907    0.963160    4.008635
     60          1           0       -4.087252    2.248431    2.789504
     61          1           0       -4.845168    0.694154    2.459455
     62          6           0        4.764574   -2.072765   -0.614011
     63          1           0        4.212599   -1.658520   -1.465378
     64          1           0        4.161202   -2.885365   -0.195261
     65          1           0        5.697101   -2.500441   -1.000425
 ---------------------------------------------------------------------

 The electronic state is 1-A.
 Alpha  occ. eigenvalues --  -19.19985 -19.16873 -19.14996 -19.13414 -19.11397
 Alpha  occ. eigenvalues --  -10.27509 -10.27405 -10.26634 -10.26250 -10.25836
 Alpha  occ. eigenvalues --  -10.25658 -10.24853 -10.21670 -10.20531 -10.20501
 Alpha  occ. eigenvalues --  -10.20372 -10.20186 -10.20113 -10.19676 -10.19227
 Alpha  occ. eigenvalues --  -10.19078 -10.19006 -10.18904 -10.18797 -10.18458
 Alpha  occ. eigenvalues --  -10.18060 -10.17583 -10.17258 -10.16695 -10.16335
 Alpha  occ. eigenvalues --  -10.15189  -1.09634  -1.05942  -1.03395  -1.02091
 Alpha  occ. eigenvalues --   -1.01409  -0.87104  -0.83838  -0.82033  -0.81278
 Alpha  occ. eigenvalues --   -0.80008  -0.78730  -0.76810  -0.74196  -0.73199
 Alpha  occ. eigenvalues --   -0.72145  -0.71063  -0.70047  -0.68812  -0.68173
 Alpha  occ. eigenvalues --   -0.65133  -0.63921  -0.63310  -0.61605  -0.60793
 Alpha  occ. eigenvalues --   -0.59210  -0.58557  -0.56672  -0.54147  -0.53448
 Alpha  occ. eigenvalues --   -0.52670  -0.51754  -0.51004  -0.50041  -0.49180
 Alpha  occ. eigenvalues --   -0.47887  -0.47562  -0.47232  -0.46545  -0.46075
 Alpha  occ. eigenvalues --   -0.44945  -0.44381  -0.44174  -0.43267  -0.42519
 Alpha  occ. eigenvalues --   -0.42438  -0.42239  -0.41780  -0.41441  -0.41166
 Alpha  occ. eigenvalues --   -0.40852  -0.40594  -0.40192  -0.40062  -0.39665
 Alpha  occ. eigenvalues --   -0.39467  -0.39103  -0.38790  -0.38399  -0.38159
 Alpha  occ. eigenvalues --   -0.37601  -0.37238  -0.36891  -0.36564  -0.36024
 Alpha  occ. eigenvalues --   -0.35693  -0.35275  -0.34765  -0.34666  -0.34274
 Alpha  occ. eigenvalues --   -0.33823  -0.33395  -0.32911  -0.32437  -0.32057
 Alpha  occ. eigenvalues --   -0.31368  -0.30981  -0.30367  -0.27552  -0.27234
 Alpha  occ. eigenvalues --   -0.25431  -0.24816  -0.24406  -0.23381  -0.22097
 Alpha virt. eigenvalues --   -0.05093  -0.01720   0.00751   0.01260   0.05905
 Alpha virt. eigenvalues --    0.07822   0.08350   0.08684   0.09522   0.09785
 Alpha virt. eigenvalues --    0.10482   0.10901   0.11557   0.11826   0.12662

 Mulliken atomic charges:
              1
     1  C   -0.198209
     2  C    0.206565
     3  C   -0.201617
     4  C    0.323682
     5  C   -0.045694
     6  C   -0.327529
     7  C    0.196989
     8  C    0.412918
     9  C   -0.080167
    10  C    0.396577
    11  C    0.429126
    12  O   -0.482951
    13  C   -0.152176
    14  C   -0.248055
    15  C   -0.453321
    16  O   -0.503647
    17  C   -0.155088
    18  C    0.290667
    19  O   -0.486679
    20  C   -0.308570
    21  O   -0.665434
    22  C   -0.332224
    23  C    0.094471
    24  O   -0.589333
    25  C    0.181310
    26  C   -0.513837
    27  C   -0.404041
    28  C   -0.466256
    29  C   -0.460980
    30  H    0.147481
    31  H    0.150882
    32  C   -0.521305
    33  H    0.125455
    34  H    0.163328
    35  H    0.160938
    36  H    0.149561
    37  H    0.150148
    38  H    0.121813
    39  H    0.142457
    40  H    0.133099
    41  H    0.163842
    42  H    0.151976
    43  H    0.157983
    44  H    0.430140
    45  H    0.150858
    46  H    0.189288
    47  H    0.135230
    48  H    0.153661
    49  H    0.160718
    50  H    0.158152
    51  H    0.184090
    52  H    0.138057
    53  H    0.195530
    54  H    0.166200
    55  H    0.142899
    56  H    0.150750
    57  H    0.170920
    58  H    0.159135
    59  H    0.157700
    60  H    0.155519
    61  H    0.158084
    62  C   -0.452773
    63  H    0.153285
    64  H    0.155674
    65  H    0.132724
 Sum of Mulliken atomic charges =   0.00000

 Dipole moment (field-independent basis, Debye):
    X=             -5.9599    Y=              1.6300    Z=              1.9641  Tot=              6.4834
 Quadrupole moment (field-independent basis, Debye-Ang):
   XX=           -189.3431   YY=           -176.9008   ZZ=           -180.1504
   XY=             -4.3377   XZ=              3.8611   YZ=              0.2230

 Normal termination of Gaussian 09 at Wed Mar 24 17:08:26 2021.
