 Gaussian 09, Revision B.01,
 Gaussian 09:  EM64L-G09RevB.01 12-Aug-2010

 ---------------------------------------
 # opt rb3lyp/6-31g(d) geom=connectivity
 ---------------------------------------

 -------------------
 Title Card Required
 -------------------
 Symbolic Z-matrix:
 Charge =  0 Multiplicity = 1

 SCF Done:  E(RB3LYP) =  -1387.30488226     A.U. after   16 cycles
 SCF Done:  E(RB3LYP) =  -1387.31745819     A.U. after   13 cycles
 SCF Done:  E(RB3LYP) =  -1387.31927469     A.U. after   13 cycles
 SCF Done:  E(RB3LYP) =  -1387.31611069     A.U. after   13 cycles
 SCF Done:  E(RB3LYP) =  -1387.31993683     A.U. after   13 cycles
 SCF Done:  E(RB3LYP) =  -1387.32035519     A.U. after   12 cycles
 SCF Done:  E(RB3LYP) =  -1387.32038424     A.U. after   12 cycles
 SCF Done:  E(RB3LYP) =  -1387.32040527     A.U. after   12 cycles
 SCF Done:  E(RB3LYP) =  -1387.32042319     A.U. after   12 cycles
 SCF Done:  E(RB3LYP) =  -1387.32044229     A.U. after   10 cycles
 SCF Done:  E(RB3LYP) =  -1387.32044454     A.U. after   10 cycles
 SCF Done:  E(RB3LYP) =  -1387.32044555     A.U. after    8 cycles
 SCF Done:  E(RB3LYP) =  -1387.32044600     A.U. after    8 cycles
 SCF Done:  E(RB3LYP) =  -1387.32044649     A.U. after    7 cycles
 Optimization completed.
    -- Stationary point found.

                         Standard orientation:
 ---------------------------------------------------------------------
 Center     Atomic      Atomic             Coordinates (Angstroms)
 Number     Number       Type             X           Y           Z
 ---------------------------------------------------------------------
      1          6           0       -1.438473    0.349739    3.224901
      2          6           0       -1.223864    1.552338    2.679447
      3          6           0       -1.376861    1.780362    1.189725
      4          6           0       -1.485528    0.494366    0.312381
      5          6           0       -1.332835   -0.891704    0.992026
      6          6           0       -1.851390   -0.871575    2.451566
      7          6           0       -0.461945    0.718977   -0.834453
      8          6           0        0.926531    0.226699   -0.488671
      9          6           0        1.201705   -0.829615    0.308402
     10          6           0        0.092824   -1.508160    0.998313
     11          6           0        2.616205   -1.261612    0.625665
     12          8           0        3.007241   -1.270170    1.777679
     13          6           0        3.481401   -1.743957   -0.538948
     14          6           0        4.982486   -1.618511   -0.239318
     15          6           0        3.077264   -3.206679   -0.835425
     16          8           0        0.259164   -2.571618    1.580785
     17          6           0       -0.166713    2.232510   -0.922573
     18          6           0        1.242458    2.273150   -1.562100
     19          8           0        1.861756    1.025234   -1.033676
     20          6           0       -0.249118    2.649721    0.560319
     21          8           0       -0.851257    0.090042   -2.041118
     22          6           0       -2.251767   -1.778197    0.112838
     23          6           0       -3.403848   -0.825782   -0.238287
     24          8           0       -2.800916    0.480037   -0.299060
     25          6           0       -4.153462   -1.150243   -1.512961
     26          6           0       -4.707958   -2.551505   -1.590208
     27          6           0       -4.351608   -0.243808   -2.475770
     28          6           0        1.208619    2.170277   -3.088743
     29          6           0        2.148509    3.417611   -1.116363
     30          1           0       -0.906020    2.757032   -1.535924
     31          1           0       -2.327844    2.306459    1.023823
     32          6           0       -0.891546    2.759330    3.521738
     33          1           0       -1.351396    0.236778    4.304597
     34          1           0       -1.490267   -1.782264    2.938688
     35          1           0       -2.950017   -0.941058    2.453380
     36          1           0        3.230122   -1.137992   -1.419321
     37          1           0        5.197729   -2.150842    0.694422
     38          1           0        5.535444   -2.135090   -1.035526
     39          1           0        2.004338   -3.299441   -1.033719
     40          1           0        3.619951   -3.576087   -1.712649
     41          1           0        3.317220   -3.851716    0.016845
     42          1           0        0.698526    2.428166    1.062933
     43          1           0       -0.436218    3.719905    0.686400
     44          1           0       -1.822895    0.187349   -2.080021
     45          1           0       -2.579221   -2.672876    0.648446
     46          1           0       -1.730276   -2.089945   -0.797587
     47          1           0       -4.136904   -0.819382    0.585283
     48          1           0       -3.908926   -3.303698   -1.594050
     49          1           0       -5.344824   -2.773016   -0.722766
     50          1           0       -5.308622   -2.689184   -2.493618
     51          1           0       -3.994488    0.776719   -2.383199
     52          1           0       -4.904294   -0.493712   -3.377444
     53          1           0        2.222088    2.015833   -3.473448
     54          1           0        0.819259    3.100973   -3.517462
     55          1           0        0.573590    1.342986   -3.410439
     56          1           0        3.139478    3.308820   -1.568399
     57          1           0        1.727885    4.374595   -1.444678
     58          1           0        2.272061    3.446025   -0.031452
     59          1           0       -0.872828    2.503660    4.585506
     60          1           0        0.085467    3.187821    3.264041
     61          1           0       -1.632795    3.558883    3.378933
     62          6           0        5.474927   -0.171306   -0.130609
     63          1           0        4.983494    0.350318    0.696907
     64          1           0        6.555694   -0.138016    0.048887
     65          1           0        5.271506    0.389270   -1.051626
 ---------------------------------------------------------------------

 The electronic state is 1-A.
 Alpha  occ. eigenvalues --  -19.19676 -19.16631 -19.15793 -19.12658 -19.12433
 Alpha  occ. eigenvalues --  -10.27041 -10.26930 -10.26818 -10.26404 -10.25792
 Alpha  occ. eigenvalues --  -10.25723 -10.25236 -10.21197 -10.20885 -10.20664
 Alpha  occ. eigenvalues --  -10.20263 -10.19866 -10.19652 -10.19364 -10.19240
 Alpha  occ. eigenvalues --  -10.19161 -10.19081 -10.18746 -10.18411 -10.18374
 Alpha  occ. eigenvalues --  -10.18309 -10.18234 -10.17983 -10.17088 -10.16831
 Alpha  occ. eigenvalues --  -10.16058  -1.09058  -1.05990  -1.03124  -1.02570
 Alpha  occ. eigenvalues --   -1.02078  -0.86673  -0.83695  -0.82457  -0.81365
 Alpha  occ. eigenvalues --   -0.80188  -0.79438  -0.76700  -0.74234  -0.73150
 Alpha  occ. eigenvalues --   -0.72082  -0.71384  -0.70071  -0.69564  -0.67923
 Alpha  occ. eigenvalues --   -0.64864  -0.64113  -0.62958  -0.61828  -0.60583
 Alpha  occ. eigenvalues --   -0.59272  -0.59042  -0.56821  -0.54945  -0.53776
 Alpha  occ. eigenvalues --   -0.52719  -0.52164  -0.50508  -0.50309  -0.49187
 Alpha  occ. eigenvalues --   -0.48358  -0.47705  -0.46787  -0.46377  -0.45800
 Alpha  occ. eigenvalues --   -0.44970  -0.44408  -0.43692  -0.43319  -0.43185
 Alpha  occ. eigenvalues --   -0.42867  -0.42035  -0.41852  -0.41821  -0.41330
 Alpha  occ. eigenvalues --   -0.40988  -0.40701  -0.40508  -0.40269  -0.39991
 Alpha  occ. eigenvalues --   -0.39175  -0.38984  -0.38670  -0.38289  -0.37633
 Alpha  occ. eigenvalues --   -0.37506  -0.37409  -0.37271  -0.37021  -0.36438
 Alpha  occ. eigenvalues --   -0.36129  -0.35675  -0.35129  -0.34653  -0.34371
 Alpha  occ. eigenvalues --   -0.33955  -0.33736  -0.32832  -0.32699  -0.31858
 Alpha  occ. eigenvalues --   -0.31734  -0.31190  -0.30980  -0.28287  -0.26519
 Alpha  occ. eigenvalues --   -0.25921  -0.24585  -0.24049  -0.23269  -0.22673
 Alpha virt. eigenvalues --   -0.04489  -0.01238   0.00946   0.02346   0.05569
 Alpha virt. eigenvalues --    0.07236   0.08398   0.08579   0.09235   0.09969
 Alpha virt. eigenvalues --    0.10798   0.10908   0.11080   0.11831   0.12578

 Mulliken atomic charges:
              1
     1  C   -0.184651
     2  C    0.193579
     3  C   -0.189813
     4  C    0.321323
     5  C   -0.053411
     6  C   -0.334187
     7  C    0.201771
     8  C    0.395638
     9  C   -0.096686
    10  C    0.434576
    11  C    0.425327
    12  O   -0.447191
    13  C   -0.160926
    14  C   -0.243931
    15  C   -0.454358
    16  O   -0.498237
    17  C   -0.164596
    18  C    0.305424
    19  O   -0.538362
    20  C   -0.322849
    21  O   -0.662840
    22  C   -0.323926
    23  C    0.106120
    24  O   -0.590426
    25  C    0.187543
    26  C   -0.519554
    27  C   -0.408322
    28  C   -0.468546
    29  C   -0.459766
    30  H    0.143519
    31  H    0.165985
    32  C   -0.519429
    33  H    0.124490
    34  H    0.185794
    35  H    0.144793
    36  H    0.144041
    37  H    0.154301
    38  H    0.122824
    39  H    0.156444
    40  H    0.146690
    41  H    0.164353
    42  H    0.168291
    43  H    0.151044
    44  H    0.416401
    45  H    0.166788
    46  H    0.170090
    47  H    0.145126
    48  H    0.170058
    49  H    0.159124
    50  H    0.161556
    51  H    0.152432
    52  H    0.139217
    53  H    0.155317
    54  H    0.143559
    55  H    0.193360
    56  H    0.163768
    57  H    0.151077
    58  H    0.163562
    59  H    0.159037
    60  H    0.157642
    61  H    0.149510
    62  C   -0.451467
    63  H    0.159784
    64  H    0.138016
    65  H    0.134179
 Sum of Mulliken atomic charges =   0.00000

 Dipole moment (field-independent basis, Debye):
    X=             -3.4704    Y=              3.7152    Z=             -2.8748  Tot=              5.8404
 Quadrupole moment (field-independent basis, Debye-Ang):
   XX=           -181.9981   YY=           -177.6038   ZZ=           -186.7019
   XY=              9.6904   XZ=             -7.8402   YZ=              5.3194

 Normal termination of Gaussian 09 at Wed Mar 24 17:34:47 2021.
