 Gaussian 09, Revision B.01,
 Gaussian 09:  EM64L-G09RevB.01 12-Aug-2010

 ---------------------------------------
 # opt rb3lyp/6-31g(d) geom=connectivity
 ---------------------------------------

 -------------------
 Title Card Required
 -------------------
 Symbolic Z-matrix:
 Charge =  0 Multiplicity = 1

 SCF Done:  E(RB3LYP) =  -1387.30518947     A.U. after   16 cycles
 SCF Done:  E(RB3LYP) =  -1387.31766574     A.U. after   13 cycles
 SCF Done:  E(RB3LYP) =  -1387.32001207     A.U. after   13 cycles
 SCF Done:  E(RB3LYP) =  -1387.31948813     A.U. after   13 cycles
 SCF Done:  E(RB3LYP) =  -1387.32102535     A.U. after   13 cycles
 SCF Done:  E(RB3LYP) =  -1387.32089206     A.U. after   13 cycles
 SCF Done:  E(RB3LYP) =  -1387.32131423     A.U. after   12 cycles
 SCF Done:  E(RB3LYP) =  -1387.32136536     A.U. after   12 cycles
 SCF Done:  E(RB3LYP) =  -1387.32137571     A.U. after   11 cycles
 SCF Done:  E(RB3LYP) =  -1387.32137861     A.U. after    8 cycles
 SCF Done:  E(RB3LYP) =  -1387.32137820     A.U. after    8 cycles
 SCF Done:  E(RB3LYP) =  -1387.32137738     A.U. after    8 cycles
 SCF Done:  E(RB3LYP) =  -1387.32137678     A.U. after    7 cycles
 SCF Done:  E(RB3LYP) =  -1387.32137656     A.U. after    7 cycles
 Optimization completed.
    -- Stationary point found.

                         Standard orientation:
 ---------------------------------------------------------------------
 Center     Atomic      Atomic             Coordinates (Angstroms)
 Number     Number       Type             X           Y           Z
 ---------------------------------------------------------------------
      1          6           0       -1.461872   -0.058443    3.233171
      2          6           0       -1.589396    1.179541    2.741862
      3          6           0       -1.769735    1.422884    1.257990
      4          6           0       -1.497587    0.198673    0.328138
      5          6           0       -0.965737   -1.115671    0.959070
      6          6           0       -1.493523   -1.310110    2.400744
      7          6           0       -0.567245    0.756117   -0.780611
      8          6           0        0.903769    0.654028   -0.433449
      9          6           0        1.459603   -0.354060    0.288831
     10          6           0        0.577506   -1.302478    0.974548
     11          6           0        2.952845   -0.430016    0.494551
     12          8           0        3.583627    0.570738    0.791703
     13          6           0        3.671547   -1.763625    0.259483
     14          6           0        4.713035   -1.581323   -0.867403
     15          6           0        4.338725   -2.226736    1.566407
     16          8           0        1.029871   -2.252598    1.609829
     17          6           0       -0.704798    2.292842   -0.797744
     18          6           0        0.640675    2.748577   -1.413688
     19          8           0        1.575704    1.685217   -0.948591
     20          6           0       -0.912813    2.597645    0.699701
     21          8           0       -0.763264    0.104524   -2.021958
     22          6           0       -1.574019   -2.187311    0.014776
     23          6           0       -2.945496   -1.605869   -0.316911
     24          8           0       -2.740556   -0.162908   -0.326952
     25          6           0       -3.619567   -2.002074   -1.614853
     26          6           0       -4.933815   -1.307966   -1.881428
     27          6           0       -3.116592   -2.922531   -2.443327
     28          6           0        0.634440    2.729959   -2.943506
     29          6           0        1.208796    4.063534   -0.887239
     30          1           0       -1.557667    2.618092   -1.401526
     31          1           0       -2.825722    1.673551    1.081633
     32          6           0       -1.632356    2.391684    3.639476
     33          1           0       -1.369672   -0.191441    4.310337
     34          1           0       -2.525197   -1.691605    2.368478
     35          1           0       -0.893391   -2.099459    2.862443
     36          1           0        2.936654   -2.515206   -0.046547
     37          1           0        5.426435   -0.809724   -0.553724
     38          1           0        5.277456   -2.518908   -0.959762
     39          1           0        4.904131   -3.150644    1.397863
     40          1           0        3.585548   -2.420021    2.335198
     41          1           0        5.028997   -1.459450    1.932904
     42          1           0       -1.385142    3.569118    0.870643
     43          1           0        0.053775    2.614827    1.214916
     44          1           0       -1.724580   -0.072131   -2.051326
     45          1           0       -1.627665   -3.167071    0.496759
     46          1           0       -0.965800   -2.274295   -0.889809
     47          1           0       -3.649861   -1.821113    0.501983
     48          1           0       -5.658700   -1.525351   -1.084854
     49          1           0       -4.806474   -0.219586   -1.898615
     50          1           0       -5.368565   -1.625364   -2.833750
     51          1           0       -2.181662   -3.439166   -2.251679
     52          1           0       -3.641197   -3.202981   -3.353242
     53          1           0        0.242583    1.783953   -3.321172
     54          1           0        1.652259    2.873670   -3.320394
     55          1           0        0.011204    3.547601   -3.323782
     56          1           0        0.543991    4.891293   -1.158507
     57          1           0        2.189891    4.251945   -1.333966
     58          1           0        1.329311    4.052071    0.198137
     59          1           0       -1.564086    2.104158    4.693105
     60          1           0       -0.813238    3.091284    3.429600
     61          1           0       -2.567710    2.953026    3.501982
     62          6           0        4.113317   -1.208249   -2.228201
     63          1           0        3.608787   -0.235666   -2.192328
     64          1           0        3.380121   -1.953908   -2.560372
     65          1           0        4.893882   -1.145417   -2.995204
 ---------------------------------------------------------------------

 The electronic state is 1-A.
 Alpha  occ. eigenvalues --  -19.19647 -19.16707 -19.15854 -19.12677 -19.12245
 Alpha  occ. eigenvalues --  -10.27395 -10.27168 -10.26649 -10.26101 -10.25785
 Alpha  occ. eigenvalues --  -10.25766 -10.25243 -10.21352 -10.20879 -10.20604
 Alpha  occ. eigenvalues --  -10.20380 -10.19873 -10.19639 -10.19390 -10.19143
 Alpha  occ. eigenvalues --  -10.18979 -10.18963 -10.18812 -10.18748 -10.18500
 Alpha  occ. eigenvalues --  -10.18147 -10.18134 -10.17462 -10.16876 -10.16160
 Alpha  occ. eigenvalues --  -10.15668  -1.09299  -1.05917  -1.02925  -1.02477
 Alpha  occ. eigenvalues --   -1.02071  -0.86707  -0.83594  -0.82412  -0.81367
 Alpha  occ. eigenvalues --   -0.80252  -0.78900  -0.76652  -0.74313  -0.73145
 Alpha  occ. eigenvalues --   -0.71696  -0.71205  -0.69913  -0.69556  -0.67851
 Alpha  occ. eigenvalues --   -0.65156  -0.63635  -0.63224  -0.61473  -0.60595
 Alpha  occ. eigenvalues --   -0.59455  -0.58744  -0.56950  -0.54606  -0.53500
 Alpha  occ. eigenvalues --   -0.52626  -0.52055  -0.50663  -0.50316  -0.49252
 Alpha  occ. eigenvalues --   -0.48273  -0.47791  -0.46667  -0.46084  -0.45784
 Alpha  occ. eigenvalues --   -0.45231  -0.44470  -0.43644  -0.43304  -0.43268
 Alpha  occ. eigenvalues --   -0.42253  -0.42049  -0.41773  -0.41406  -0.41321
 Alpha  occ. eigenvalues --   -0.40904  -0.40508  -0.40238  -0.40091  -0.39651
 Alpha  occ. eigenvalues --   -0.39126  -0.39022  -0.38391  -0.38078  -0.37832
 Alpha  occ. eigenvalues --   -0.37539  -0.37504  -0.37323  -0.36878  -0.36476
 Alpha  occ. eigenvalues --   -0.36381  -0.35062  -0.34861  -0.34509  -0.34141
 Alpha  occ. eigenvalues --   -0.33618  -0.33487  -0.32884  -0.32604  -0.31986
 Alpha  occ. eigenvalues --   -0.31380  -0.31124  -0.30394  -0.28144  -0.26731
 Alpha  occ. eigenvalues --   -0.26336  -0.24657  -0.24042  -0.23423  -0.22516
 Alpha virt. eigenvalues --   -0.04817  -0.01082   0.00245   0.02189   0.05910
 Alpha virt. eigenvalues --    0.07118   0.08784   0.08856   0.09436   0.10560
 Alpha virt. eigenvalues --    0.10789   0.11172   0.11278   0.12050   0.12529

 Mulliken atomic charges:
              1
     1  C   -0.187943
     2  C    0.193128
     3  C   -0.188181
     4  C    0.325563
     5  C   -0.054050
     6  C   -0.333691
     7  C    0.199277
     8  C    0.407561
     9  C   -0.093829
    10  C    0.422138
    11  C    0.420470
    12  O   -0.464228
    13  C   -0.128250
    14  C   -0.250367
    15  C   -0.459132
    16  O   -0.513485
    17  C   -0.164539
    18  C    0.301329
    19  O   -0.513945
    20  C   -0.324781
    21  O   -0.656649
    22  C   -0.325548
    23  C    0.096463
    24  O   -0.591815
    25  C    0.181193
    26  C   -0.507956
    27  C   -0.392817
    28  C   -0.469297
    29  C   -0.456838
    30  H    0.143405
    31  H    0.164093
    32  C   -0.519823
    33  H    0.122745
    34  H    0.145579
    35  H    0.184844
    36  H    0.134850
    37  H    0.151946
    38  H    0.127558
    39  H    0.135563
    40  H    0.169455
    41  H    0.155535
    42  H    0.151395
    43  H    0.172005
    44  H    0.414036
    45  H    0.167726
    46  H    0.169767
    47  H    0.138870
    48  H    0.156739
    49  H    0.171015
    50  H    0.154624
    51  H    0.152811
    52  H    0.142691
    53  H    0.192194
    54  H    0.159368
    55  H    0.143201
    56  H    0.148150
    57  H    0.167434
    58  H    0.167224
    59  H    0.158205
    60  H    0.159234
    61  H    0.150031
    62  C   -0.460181
    63  H    0.158845
    64  H    0.139082
    65  H    0.140006
 Sum of Mulliken atomic charges =   0.00000

 Dipole moment (field-independent basis, Debye):
    X=             -5.2229    Y=              1.9468    Z=             -1.6150  Tot=              5.8031
 Quadrupole moment (field-independent basis, Debye-Ang):
   XX=           -188.5442   YY=           -174.5355   ZZ=           -182.8845
   XY=             -0.4106   XZ=             -3.8167   YZ=              1.5358

 Normal termination of Gaussian 09 at Wed Mar 24 14:49:21 2021.
