 Gaussian 09, Revision B.01,
 Gaussian 09:  EM64L-G09RevB.01 12-Aug-2010

 ---------------------------------------
 # opt rb3lyp/6-31g(d) geom=connectivity
 ---------------------------------------

 -------------------
 Title Card Required
 -------------------
 Symbolic Z-matrix:
 Charge =  0 Multiplicity = 1

 SCF Done:  E(RB3LYP) =  -1387.30274190     A.U. after   16 cycles
 SCF Done:  E(RB3LYP) =  -1387.31530659     A.U. after   13 cycles
 SCF Done:  E(RB3LYP) =  -1387.31776799     A.U. after   13 cycles
 SCF Done:  E(RB3LYP) =  -1387.31732671     A.U. after   16 cycles
 SCF Done:  E(RB3LYP) =  -1387.31923299     A.U. after   13 cycles
 SCF Done:  E(RB3LYP) =  -1387.31956052     A.U. after   12 cycles
 SCF Done:  E(RB3LYP) =  -1387.31971956     A.U. after   13 cycles
 SCF Done:  E(RB3LYP) =  -1387.31996781     A.U. after   13 cycles
 SCF Done:  E(RB3LYP) =  -1387.32007800     A.U. after   11 cycles
 SCF Done:  E(RB3LYP) =  -1387.32015035     A.U. after   13 cycles
 SCF Done:  E(RB3LYP) =  -1387.31994979     A.U. after   15 cycles
 SCF Done:  E(RB3LYP) =  -1387.32033541     A.U. after   13 cycles
 SCF Done:  E(RB3LYP) =  -1387.32036577     A.U. after   10 cycles
 SCF Done:  E(RB3LYP) =  -1387.32037721     A.U. after   10 cycles
 SCF Done:  E(RB3LYP) =  -1387.32038452     A.U. after   10 cycles
 SCF Done:  E(RB3LYP) =  -1387.32038605     A.U. after    9 cycles
 SCF Done:  E(RB3LYP) =  -1387.32038689     A.U. after   10 cycles
 SCF Done:  E(RB3LYP) =  -1387.32038718     A.U. after    7 cycles
 SCF Done:  E(RB3LYP) =  -1387.32038723     A.U. after    7 cycles
 SCF Done:  E(RB3LYP) =  -1387.32038717     A.U. after    7 cycles
 Optimization completed.
    -- Stationary point found.

                         Standard orientation:
 ---------------------------------------------------------------------
 Center     Atomic      Atomic             Coordinates (Angstroms)
 Number     Number       Type             X           Y           Z
 ---------------------------------------------------------------------
      1          6           0       -2.036202    0.154523    2.758549
      2          6           0       -2.641560    1.112586    2.045963
      3          6           0       -2.122926    1.472887    0.672703
      4          6           0       -1.403345    0.327014   -0.111474
      5          6           0       -0.918993   -0.903526    0.721250
      6          6           0       -0.836733   -0.598922    2.247191
      7          6           0       -0.268412    1.045332   -0.900262
      8          6           0        1.106139    0.856069   -0.264897
      9          6           0        1.555860   -0.357514    0.182300
     10          6           0        0.511612   -1.396779    0.322682
     11          6           0        3.007720   -0.568018    0.498809
     12          8           0        3.730260    0.398714    0.702726
     13          6           0        3.586574   -1.987349    0.573033
     14          6           0        5.040261   -2.008391    0.066618
     15          6           0        3.500552   -2.471687    2.036572
     16          8           0        0.731659   -2.601355    0.302360
     17          6           0       -0.450182    2.567919   -0.729166
     18          6           0        0.991115    3.106784   -0.849802
     19          8           0        1.804993    1.981892   -0.312958
     20          6           0       -1.126125    2.662189    0.652966
     21          8           0       -0.181723    0.598511   -2.237648
     22          6           0       -1.972778   -1.997555    0.410533
     23          6           0       -3.000057   -1.325809   -0.522869
     24          8           0       -2.297373   -0.213618   -1.095285
     25          6           0       -3.585575   -2.219290   -1.591182
     26          6           0       -4.356532   -3.403959   -1.061669
     27          6           0       -3.454930   -1.970919   -2.896136
     28          6           0        1.416531    3.324099   -2.303830
     29          6           0        1.335073    4.316497    0.013059
     30          1           0       -1.096301    2.973222   -1.513234
     31          1           0       -2.970958    1.753115    0.033083
     32          6           0       -3.820951    1.896375    2.560103
     33          1           0       -2.393956   -0.083893    3.759116
     34          1           0       -0.720493   -1.550763    2.777125
     35          1           0        0.077329   -0.025928    2.458195
     36          1           0        2.972321   -2.653556   -0.037349
     37          1           0        5.630569   -1.294326    0.651633
     38          1           0        5.451854   -3.006793    0.267503
     39          1           0        3.918303   -3.481077    2.123605
     40          1           0        2.464957   -2.511321    2.388815
     41          1           0        4.069518   -1.806632    2.696653
     42          1           0       -1.623032    3.622605    0.820523
     43          1           0       -0.389663    2.536027    1.455577
     44          1           0       -0.973965    0.039716   -2.369556
     45          1           0       -2.449598   -2.372754    1.319873
     46          1           0       -1.477551   -2.840294   -0.077702
     47          1           0       -3.830666   -0.925531    0.082168
     48          1           0       -3.711828   -4.080988   -0.486304
     49          1           0       -5.162127   -3.084672   -0.385969
     50          1           0       -4.805975   -3.977613   -1.877072
     51          1           0       -2.920757   -1.103940   -3.268693
     52          1           0       -3.893093   -2.632358   -3.638742
     53          1           0        1.173579    2.453497   -2.917269
     54          1           0        2.494673    3.506499   -2.352551
     55          1           0        0.899719    4.197637   -2.717464
     56          1           0        0.753551    5.185277   -0.314472
     57          1           0        2.397743    4.557038   -0.087789
     58          1           0        1.127777    4.136352    1.070727
     59          1           0       -4.110278    1.575159    3.565663
     60          1           0       -3.600550    2.972050    2.600933
     61          1           0       -4.692333    1.782231    1.900401
     62          6           0        5.181594   -1.690407   -1.425898
     63          1           0        4.836217   -0.674873   -1.646960
     64          1           0        4.598177   -2.388129   -2.039815
     65          1           0        6.227935   -1.761036   -1.745078
 ---------------------------------------------------------------------

 The electronic state is 1-A.
 Alpha  occ. eigenvalues --  -19.19999 -19.17297 -19.15274 -19.13222 -19.11370
 Alpha  occ. eigenvalues --  -10.27471 -10.27307 -10.26666 -10.26329 -10.26121
 Alpha  occ. eigenvalues --  -10.25675 -10.25054 -10.21591 -10.20716 -10.20632
 Alpha  occ. eigenvalues --  -10.20464 -10.20204 -10.20200 -10.20053 -10.19329
 Alpha  occ. eigenvalues --  -10.19089 -10.19026 -10.19016 -10.18960 -10.18792
 Alpha  occ. eigenvalues --  -10.18199 -10.17829 -10.16961 -10.16405 -10.16092
 Alpha  occ. eigenvalues --  -10.15455  -1.09650  -1.06868  -1.03291  -1.02550
 Alpha  occ. eigenvalues --   -1.01412  -0.87201  -0.83823  -0.82234  -0.81418
 Alpha  occ. eigenvalues --   -0.80175  -0.78573  -0.76798  -0.74101  -0.73232
 Alpha  occ. eigenvalues --   -0.72294  -0.71056  -0.70128  -0.69132  -0.68496
 Alpha  occ. eigenvalues --   -0.64980  -0.63874  -0.63241  -0.61553  -0.60966
 Alpha  occ. eigenvalues --   -0.59185  -0.58570  -0.56877  -0.54733  -0.53527
 Alpha  occ. eigenvalues --   -0.52871  -0.51802  -0.51245  -0.50033  -0.49504
 Alpha  occ. eigenvalues --   -0.48052  -0.47314  -0.47023  -0.46626  -0.46139
 Alpha  occ. eigenvalues --   -0.45228  -0.44264  -0.44186  -0.43517  -0.42582
 Alpha  occ. eigenvalues --   -0.42425  -0.42139  -0.41889  -0.41658  -0.41426
 Alpha  occ. eigenvalues --   -0.40831  -0.40669  -0.40347  -0.40100  -0.39923
 Alpha  occ. eigenvalues --   -0.39417  -0.39109  -0.38978  -0.38612  -0.38431
 Alpha  occ. eigenvalues --   -0.37675  -0.37153  -0.36929  -0.36594  -0.36307
 Alpha  occ. eigenvalues --   -0.35707  -0.35241  -0.34789  -0.34588  -0.34327
 Alpha  occ. eigenvalues --   -0.33870  -0.33647  -0.32956  -0.32518  -0.31915
 Alpha  occ. eigenvalues --   -0.31387  -0.30945  -0.30478  -0.28450  -0.27474
 Alpha  occ. eigenvalues --   -0.25219  -0.24652  -0.24249  -0.23446  -0.22016
 Alpha virt. eigenvalues --   -0.04922  -0.01111   0.00796   0.01823   0.05567
 Alpha virt. eigenvalues --    0.07114   0.08097   0.08642   0.09257   0.09913
 Alpha virt. eigenvalues --    0.10419   0.10786   0.11278   0.11581   0.12031

 Mulliken atomic charges:
              1
     1  C   -0.195258
     2  C    0.199535
     3  C   -0.199842
     4  C    0.309161
     5  C   -0.021849
     6  C   -0.329632
     7  C    0.192272
     8  C    0.399661
     9  C   -0.070560
    10  C    0.381544
    11  C    0.409756
    12  O   -0.478688
    13  C   -0.149687
    14  C   -0.242592
    15  C   -0.458565
    16  O   -0.490355
    17  C   -0.151857
    18  C    0.290216
    19  O   -0.483884
    20  C   -0.310951
    21  O   -0.670692
    22  C   -0.332457
    23  C    0.118935
    24  O   -0.587769
    25  C    0.182582
    26  C   -0.518281
    27  C   -0.394352
    28  C   -0.468118
    29  C   -0.460363
    30  H    0.149839
    31  H    0.150536
    32  C   -0.521676
    33  H    0.125499
    34  H    0.161568
    35  H    0.164923
    36  H    0.162393
    37  H    0.149547
    38  H    0.120765
    39  H    0.146566
    40  H    0.148798
    41  H    0.150925
    42  H    0.152688
    43  H    0.162751
    44  H    0.430644
    45  H    0.147268
    46  H    0.191297
    47  H    0.134699
    48  H    0.168735
    49  H    0.153900
    50  H    0.161017
    51  H    0.146008
    52  H    0.136909
    53  H    0.195140
    54  H    0.164126
    55  H    0.144749
    56  H    0.149804
    57  H    0.171612
    58  H    0.161811
    59  H    0.158455
    60  H    0.156935
    61  H    0.156316
    62  C   -0.453858
    63  H    0.157473
    64  H    0.137402
    65  H    0.136526
 Sum of Mulliken atomic charges =   0.00000

 Dipole moment (field-independent basis, Debye):
    X=             -5.5970    Y=              2.6474    Z=              0.9641  Tot=              6.2662
 Quadrupole moment (field-independent basis, Debye-Ang):
   XX=           -190.2120   YY=           -174.1622   ZZ=           -182.4959
   XY=              0.9311   XZ=             -4.9405   YZ=             -2.1008

 Normal termination of Gaussian 09 at Wed Mar 24 15:51:35 2021.
