 Gaussian 09, Revision B.01,
 Gaussian 09:  EM64L-G09RevB.01 12-Aug-2010

 ---------------------------------------
 # opt rb3lyp/6-31g(d) geom=connectivity
 ---------------------------------------

 -------------------
 Title Card Required
 -------------------
 Symbolic Z-matrix:
 Charge =  0 Multiplicity = 1

 SCF Done:  E(RB3LYP) =  -1387.30365765     A.U. after   16 cycles
 SCF Done:  E(RB3LYP) =  -1387.31661883     A.U. after   13 cycles
 SCF Done:  E(RB3LYP) =  -1387.31880866     A.U. after   13 cycles
 SCF Done:  E(RB3LYP) =  -1387.31735706     A.U. after   13 cycles
 SCF Done:  E(RB3LYP) =  -1387.31955199     A.U. after   13 cycles
 SCF Done:  E(RB3LYP) =  -1387.31953879     A.U. after   12 cycles
 SCF Done:  E(RB3LYP) =  -1387.31961824     A.U. after   12 cycles
 SCF Done:  E(RB3LYP) =  -1387.31970075     A.U. after   12 cycles
 SCF Done:  E(RB3LYP) =  -1387.31971451     A.U. after   10 cycles
 SCF Done:  E(RB3LYP) =  -1387.31971901     A.U. after   10 cycles
 SCF Done:  E(RB3LYP) =  -1387.31974450     A.U. after   13 cycles
 SCF Done:  E(RB3LYP) =  -1387.31996229     A.U. after   13 cycles
 SCF Done:  E(RB3LYP) =  -1387.31998109     A.U. after   12 cycles
 SCF Done:  E(RB3LYP) =  -1387.32001631     A.U. after   12 cycles
 SCF Done:  E(RB3LYP) =  -1387.32001395     A.U. after   11 cycles
 SCF Done:  E(RB3LYP) =  -1387.32002831     A.U. after   11 cycles
 SCF Done:  E(RB3LYP) =  -1387.32002592     A.U. after   10 cycles
 SCF Done:  E(RB3LYP) =  -1387.32002782     A.U. after    8 cycles
 SCF Done:  E(RB3LYP) =  -1387.32002789     A.U. after    7 cycles
 SCF Done:  E(RB3LYP) =  -1387.32002754     A.U. after    6 cycles
 Optimization completed.
    -- Stationary point found.

                         Standard orientation:
 ---------------------------------------------------------------------
 Center     Atomic      Atomic             Coordinates (Angstroms)
 Number     Number       Type             X           Y           Z
 ---------------------------------------------------------------------
      1          6           0       -0.590471   -1.286737    2.901791
      2          6           0       -0.788281    0.033405    2.993979
      3          6           0       -1.358555    0.830892    1.839775
      4          6           0       -1.433619    0.099760    0.460318
      5          6           0       -0.890199   -1.353920    0.346708
      6          6           0       -0.941358   -2.115681    1.699967
      7          6           0       -0.744198    1.073186   -0.532978
      8          6           0        0.754887    0.868620   -0.638946
      9          6           0        1.378768   -0.340577   -0.545896
     10          6           0        0.550082   -1.511973   -0.219772
     11          6           0        2.870169   -0.442926   -0.759918
     12          8           0        3.425000    0.338631   -1.516316
     13          6           0        3.669199   -1.456469    0.067354
     14          6           0        5.108464   -1.609317   -0.449279
     15          6           0        3.644055   -1.007177    1.546539
     16          8           0        0.961428   -2.660924   -0.355904
     17          6           0       -0.766950    2.485369    0.089386
     18          6           0        0.436644    3.175070   -0.592835
     19          8           0        1.374827    2.037340   -0.791720
     20          6           0       -0.602686    2.170077    1.588522
     21          8           0       -1.288260    0.965003   -1.834058
     22          6           0       -1.896125   -2.002404   -0.639973
     23          6           0       -3.213734   -1.330121   -0.246485
     24          8           0       -2.827154    0.036513    0.042744
     25          6           0       -4.326803   -1.379956   -1.270540
     26          6           0       -4.193777   -0.564613   -2.533250
     27          6           0       -5.385812   -2.163864   -1.044258
     28          6           0        0.099609    3.747283   -1.971964
     29          6           0        1.194647    4.201492    0.245073
     30          1           0       -1.707336    3.004515   -0.119156
     31          1           0       -2.402482    1.077693    2.079220
     32          6           0       -0.524512    0.786925    4.274932
     33          1           0       -0.210026   -1.824908    3.769306
     34          1           0       -0.280889   -2.983310    1.611719
     35          1           0       -1.950696   -2.529452    1.846292
     36          1           0        3.152118   -2.418341   -0.000509
     37          1           0        5.672537   -2.190850    0.292832
     38          1           0        5.577397   -0.619717   -0.500737
     39          1           0        4.144075   -0.038489    1.669569
     40          1           0        4.170205   -1.738968    2.169571
     41          1           0        2.622511   -0.912698    1.931359
     42          1           0        0.458290    2.030865    1.822679
     43          1           0       -0.968301    2.975891    2.231207
     44          1           0       -2.239215    0.815456   -1.667720
     45          1           0       -1.926092   -3.089871   -0.537928
     46          1           0       -1.632515   -1.760995   -1.673898
     47          1           0       -3.592017   -1.778104    0.682145
     48          1           0       -4.282000    0.508841   -2.318285
     49          1           0       -3.229691   -0.720668   -3.032047
     50          1           0       -4.984135   -0.818126   -3.245477
     51          1           0       -5.494912   -2.728156   -0.121268
     52          1           0       -6.180082   -2.277450   -1.777331
     53          1           0        1.020380    4.042717   -2.484734
     54          1           0       -0.533165    4.635548   -1.861750
     55          1           0       -0.428447    3.013114   -2.582729
     56          1           0        2.074093    4.551837   -0.303836
     57          1           0        0.551331    5.064870    0.447819
     58          1           0        1.532408    3.788199    1.198195
     59          1           0       -0.185295    0.111402    5.066180
     60          1           0        0.237025    1.567235    4.151246
     61          1           0       -1.434880    1.291458    4.628991
     62          6           0        5.210994   -2.298667   -1.814329
     63          1           0        6.258796   -2.419293   -2.113498
     64          1           0        4.754300   -3.296064   -1.790150
     65          1           0        4.707351   -1.712757   -2.588777
 ---------------------------------------------------------------------

 The electronic state is 1-A.
 Alpha  occ. eigenvalues --  -19.19771 -19.16862 -19.15942 -19.12793 -19.11975
 Alpha  occ. eigenvalues --  -10.27572 -10.27298 -10.26692 -10.25996 -10.25975
 Alpha  occ. eigenvalues --  -10.25956 -10.25101 -10.21525 -10.20811 -10.20705
 Alpha  occ. eigenvalues --  -10.20623 -10.20127 -10.19862 -10.19522 -10.19371
 Alpha  occ. eigenvalues --  -10.19251 -10.19230 -10.19071 -10.18909 -10.18793
 Alpha  occ. eigenvalues --  -10.18613 -10.18070 -10.17329 -10.17111 -10.16182
 Alpha  occ. eigenvalues --  -10.15197  -1.09498  -1.06099  -1.03064  -1.02694
 Alpha  occ. eigenvalues --   -1.01893  -0.86841  -0.83696  -0.82509  -0.81484
 Alpha  occ. eigenvalues --   -0.80374  -0.78922  -0.76721  -0.74384  -0.73345
 Alpha  occ. eigenvalues --   -0.71987  -0.71091  -0.70116  -0.69933  -0.68006
 Alpha  occ. eigenvalues --   -0.65251  -0.63637  -0.63234  -0.61645  -0.60736
 Alpha  occ. eigenvalues --   -0.59432  -0.58649  -0.57045  -0.54659  -0.53915
 Alpha  occ. eigenvalues --   -0.52924  -0.51865  -0.50952  -0.50581  -0.49525
 Alpha  occ. eigenvalues --   -0.47947  -0.47480  -0.47045  -0.46436  -0.45665
 Alpha  occ. eigenvalues --   -0.45098  -0.44528  -0.44003  -0.43818  -0.43680
 Alpha  occ. eigenvalues --   -0.42417  -0.42116  -0.41725  -0.41587  -0.41344
 Alpha  occ. eigenvalues --   -0.40821  -0.40751  -0.40658  -0.40040  -0.39632
 Alpha  occ. eigenvalues --   -0.39361  -0.39274  -0.38476  -0.38285  -0.38021
 Alpha  occ. eigenvalues --   -0.37617  -0.37321  -0.37145  -0.36971  -0.36697
 Alpha  occ. eigenvalues --   -0.36317  -0.35790  -0.35094  -0.34743  -0.34152
 Alpha  occ. eigenvalues --   -0.33880  -0.33709  -0.32848  -0.32346  -0.31916
 Alpha  occ. eigenvalues --   -0.31514  -0.31147  -0.30757  -0.28418  -0.27134
 Alpha  occ. eigenvalues --   -0.25765  -0.24554  -0.24397  -0.23541  -0.22377
 Alpha virt. eigenvalues --   -0.05009  -0.01576   0.00533   0.01664   0.06027
 Alpha virt. eigenvalues --    0.07493   0.08132   0.08471   0.09446   0.10033
 Alpha virt. eigenvalues --    0.10234   0.10824   0.11706   0.12025   0.12490

 Mulliken atomic charges:
              1
     1  C   -0.190868
     2  C    0.191768
     3  C   -0.190025
     4  C    0.326744
     5  C   -0.045986
     6  C   -0.338079
     7  C    0.184524
     8  C    0.403273
     9  C   -0.078004
    10  C    0.407870
    11  C    0.423121
    12  O   -0.460349
    13  C   -0.175719
    14  C   -0.238511
    15  C   -0.463892
    16  O   -0.509748
    17  C   -0.161435
    18  C    0.298905
    19  O   -0.498795
    20  C   -0.322302
    21  O   -0.667049
    22  C   -0.310725
    23  C    0.074683
    24  O   -0.596160
    25  C    0.241112
    26  C   -0.547544
    27  C   -0.403918
    28  C   -0.467953
    29  C   -0.460406
    30  H    0.145262
    31  H    0.166233
    32  C   -0.519237
    33  H    0.123488
    34  H    0.183014
    35  H    0.148683
    36  H    0.179342
    37  H    0.118771
    38  H    0.144719
    39  H    0.148025
    40  H    0.149472
    41  H    0.146139
    42  H    0.163704
    43  H    0.152495
    44  H    0.433259
    45  H    0.169335
    46  H    0.167204
    47  H    0.134811
    48  H    0.166431
    49  H    0.175746
    50  H    0.162351
    51  H    0.141645
    52  H    0.142457
    53  H    0.164563
    54  H    0.141780
    55  H    0.193160
    56  H    0.170296
    57  H    0.150482
    58  H    0.159187
    59  H    0.158353
    60  H    0.157551
    61  H    0.152690
    62  C   -0.453250
    63  H    0.134131
    64  H    0.138252
    65  H    0.164920
 Sum of Mulliken atomic charges =   0.00000

 Dipole moment (field-independent basis, Debye):
    X=             -4.8147    Y=              2.5485    Z=              3.2463  Tot=              6.3415
 Quadrupole moment (field-independent basis, Debye-Ang):
   XX=           -188.8868   YY=           -176.6720   ZZ=           -183.2356
   XY=              2.8098   XZ=             10.8134   YZ=              0.1314

 Normal termination of Gaussian 09 at Wed Mar 24 18:10:48 2021.
