 Gaussian 09, Revision B.01,
 Gaussian 09:  EM64L-G09RevB.01 12-Aug-2010

 ---------------------------------------
 # opt rb3lyp/6-31g(d) geom=connectivity
 ---------------------------------------

 -------------------
 Title Card Required
 -------------------
 Symbolic Z-matrix:
 Charge =  0 Multiplicity = 1

 SCF Done:  E(RB3LYP) =  -1387.30566519     A.U. after   16 cycles
 SCF Done:  E(RB3LYP) =  -1387.31805921     A.U. after   13 cycles
 SCF Done:  E(RB3LYP) =  -1387.32050512     A.U. after   13 cycles
 SCF Done:  E(RB3LYP) =  -1387.32044597     A.U. after   13 cycles
 SCF Done:  E(RB3LYP) =  -1387.32089662     A.U. after   13 cycles
 SCF Done:  E(RB3LYP) =  -1387.32122939     A.U. after   12 cycles
 SCF Done:  E(RB3LYP) =  -1387.32123059     A.U. after   13 cycles
 SCF Done:  E(RB3LYP) =  -1387.32139183     A.U. after   12 cycles
 SCF Done:  E(RB3LYP) =  -1387.32142588     A.U. after   11 cycles
 SCF Done:  E(RB3LYP) =  -1387.32143997     A.U. after   11 cycles
 SCF Done:  E(RB3LYP) =  -1387.32142028     A.U. after   12 cycles
 SCF Done:  E(RB3LYP) =  -1387.32146709     A.U. after   12 cycles
 SCF Done:  E(RB3LYP) =  -1387.32147383     A.U. after   12 cycles
 SCF Done:  E(RB3LYP) =  -1387.32146982     A.U. after   12 cycles
 SCF Done:  E(RB3LYP) =  -1387.32146706     A.U. after   10 cycles
 SCF Done:  E(RB3LYP) =  -1387.32147377     A.U. after   11 cycles
 SCF Done:  E(RB3LYP) =  -1387.32147146     A.U. after   10 cycles
 SCF Done:  E(RB3LYP) =  -1387.32147080     A.U. after    8 cycles
 SCF Done:  E(RB3LYP) =  -1387.32147092     A.U. after    6 cycles
 SCF Done:  E(RB3LYP) =  -1387.32147102     A.U. after    6 cycles
 Optimization completed.
    -- Stationary point found.

                         Standard orientation:
 ---------------------------------------------------------------------
 Center     Atomic      Atomic             Coordinates (Angstroms)
 Number     Number       Type             X           Y           Z
 ---------------------------------------------------------------------
      1          6           0       -0.242680   -1.106928    3.029451
      2          6           0       -0.580430    0.187802    3.055010
      3          6           0       -1.355692    0.819206    1.916338
      4          6           0       -1.425648   -0.014402    0.598812
      5          6           0       -0.672489   -1.364159    0.523845
      6          6           0       -0.595737   -2.048767    1.911562
      7          6           0       -0.982803    0.970888   -0.511929
      8          6           0        0.522039    1.001665   -0.723627
      9          6           0        1.349231   -0.075990   -0.573853
     10          6           0        0.760704   -1.326532   -0.073808
     11          6           0        2.815403    0.042647   -0.891650
     12          8           0        3.194587    0.867672   -1.710031
     13          6           0        3.844921   -0.827049   -0.158621
     14          6           0        4.392623   -1.877553   -1.155890
     15          6           0        4.947365    0.084646    0.408674
     16          8           0        1.374266   -2.390552   -0.104741
     17          6           0       -1.189101    2.406157    0.017310
     18          6           0       -0.174192    3.222589   -0.814507
     19          8           0        0.921259    2.234221   -1.023505
     20          6           0       -0.851353    2.236802    1.513485
     21          8           0       -1.572898    0.675275   -1.762858
     22          6           0       -1.580622   -2.187350   -0.425347
     23          6           0       -2.989561   -1.704317   -0.051010
     24          8           0       -2.818008   -0.330822    0.345282
     25          6           0       -4.034152   -1.838479   -1.138577
     26          6           0       -4.195557   -3.228232   -1.703838
     27          6           0       -4.789980   -0.808478   -1.533184
     28          6           0       -0.706493    3.624968   -2.191818
     29          6           0        0.468546    4.417956   -0.116102
     30          1           0       -2.215878    2.752167   -0.135310
     31          1           0       -2.402852    0.917985    2.235131
     32          6           0       -0.283677    1.063638    4.247253
     33          1           0        0.279815   -1.533901    3.884529
     34          1           0       -1.561671   -2.525653    2.137935
     35          1           0        0.132326   -2.861777    1.837162
     36          1           0        3.356686   -1.361697    0.660456
     37          1           0        4.902746   -1.346008   -1.969750
     38          1           0        3.540312   -2.403485   -1.599973
     39          1           0        5.430748    0.646694   -0.395858
     40          1           0        4.534332    0.808132    1.121929
     41          1           0        5.706972   -0.501395    0.935834
     42          1           0        0.233593    2.286360    1.654209
     43          1           0       -1.289711    3.022283    2.135600
     44          1           0       -2.485353    0.392498   -1.557050
     45          1           0       -1.364552   -1.945090   -1.470377
     46          1           0       -1.439887   -3.261654   -0.282692
     47          1           0       -3.348555   -2.265271    0.827928
     48          1           0       -4.403027   -3.957055   -0.908284
     49          1           0       -5.019492   -3.268834   -2.421667
     50          1           0       -3.283924   -3.567386   -2.211902
     51          1           0       -5.542366   -0.928205   -2.308048
     52          1           0       -4.699967    0.173589   -1.080450
     53          1           0        0.110335    4.024286   -2.801311
     54          1           0       -1.467476    4.406444   -2.082822
     55          1           0       -1.150161    2.770880   -2.705960
     56          1           0        0.946679    4.139079    0.825596
     57          1           0        1.229746    4.862094   -0.764728
     58          1           0       -0.291554    5.179369    0.091111
     59          1           0        0.217207    0.496431    5.037759
     60          1           0        0.357605    1.915879    3.988461
     61          1           0       -1.208252    1.484364    4.667908
     62          6           0        5.330785   -2.910926   -0.524697
     63          1           0        4.829571   -3.451975    0.287241
     64          1           0        5.645241   -3.650507   -1.270405
     65          1           0        6.238431   -2.453797   -0.115054
 ---------------------------------------------------------------------

 The electronic state is 1-A.
 Alpha  occ. eigenvalues --  -19.19858 -19.16761 -19.15907 -19.12776 -19.11562
 Alpha  occ. eigenvalues --  -10.27715 -10.27207 -10.26688 -10.25918 -10.25842
 Alpha  occ. eigenvalues --  -10.25669 -10.25361 -10.21400 -10.20946 -10.20717
 Alpha  occ. eigenvalues --  -10.20540 -10.20107 -10.19737 -10.19714 -10.19401
 Alpha  occ. eigenvalues --  -10.19222 -10.19138 -10.19042 -10.18816 -10.18467
 Alpha  occ. eigenvalues --  -10.18438 -10.18037 -10.17237 -10.16292 -10.15944
 Alpha  occ. eigenvalues --  -10.15876  -1.09563  -1.06168  -1.02993  -1.02723
 Alpha  occ. eigenvalues --   -1.01542  -0.86902  -0.83707  -0.82507  -0.81445
 Alpha  occ. eigenvalues --   -0.80378  -0.78607  -0.76713  -0.74411  -0.73322
 Alpha  occ. eigenvalues --   -0.71870  -0.70801  -0.69961  -0.69630  -0.68156
 Alpha  occ. eigenvalues --   -0.65471  -0.64036  -0.63360  -0.61676  -0.60776
 Alpha  occ. eigenvalues --   -0.59480  -0.57891  -0.56958  -0.54457  -0.53916
 Alpha  occ. eigenvalues --   -0.52827  -0.51968  -0.50910  -0.50483  -0.49295
 Alpha  occ. eigenvalues --   -0.48090  -0.47382  -0.46811  -0.46456  -0.45895
 Alpha  occ. eigenvalues --   -0.44998  -0.44565  -0.44269  -0.43736  -0.43337
 Alpha  occ. eigenvalues --   -0.42720  -0.42179  -0.41912  -0.41690  -0.41314
 Alpha  occ. eigenvalues --   -0.40822  -0.40656  -0.40527  -0.39752  -0.39465
 Alpha  occ. eigenvalues --   -0.39163  -0.38792  -0.38295  -0.38092  -0.37757
 Alpha  occ. eigenvalues --   -0.37715  -0.37423  -0.37169  -0.36886  -0.36809
 Alpha  occ. eigenvalues --   -0.36218  -0.35200  -0.34705  -0.34696  -0.34210
 Alpha  occ. eigenvalues --   -0.34120  -0.33749  -0.32929  -0.32752  -0.32116
 Alpha  occ. eigenvalues --   -0.31430  -0.30493  -0.30125  -0.28363  -0.26592
 Alpha  occ. eigenvalues --   -0.25990  -0.24598  -0.24345  -0.23504  -0.22171
 Alpha virt. eigenvalues --   -0.05155  -0.01278   0.00868   0.01834   0.06315
 Alpha virt. eigenvalues --    0.07732   0.08337   0.08648   0.09560   0.09847
 Alpha virt. eigenvalues --    0.10769   0.10990   0.11335   0.11831   0.12653

 Mulliken atomic charges:
              1
     1  C   -0.191704
     2  C    0.191610
     3  C   -0.189735
     4  C    0.320704
     5  C   -0.047172
     6  C   -0.333273
     7  C    0.195899
     8  C    0.400840
     9  C   -0.072611
    10  C    0.407682
    11  C    0.413651
    12  O   -0.471510
    13  C   -0.133527
    14  C   -0.252456
    15  C   -0.452455
    16  O   -0.514285
    17  C   -0.163412
    18  C    0.298658
    19  O   -0.493868
    20  C   -0.322856
    21  O   -0.657009
    22  C   -0.323768
    23  C    0.104809
    24  O   -0.589936
    25  C    0.187208
    26  C   -0.519650
    27  C   -0.407843
    28  C   -0.468418
    29  C   -0.459691
    30  H    0.145171
    31  H    0.168039
    32  C   -0.519475
    33  H    0.123056
    34  H    0.147138
    35  H    0.181115
    36  H    0.136588
    37  H    0.142274
    38  H    0.154548
    39  H    0.164925
    40  H    0.133875
    41  H    0.140551
    42  H    0.162953
    43  H    0.152170
    44  H    0.416311
    45  H    0.174464
    46  H    0.166482
    47  H    0.143935
    48  H    0.158546
    49  H    0.162177
    50  H    0.171035
    51  H    0.140030
    52  H    0.152521
    53  H    0.164608
    54  H    0.141821
    55  H    0.194324
    56  H    0.159595
    57  H    0.170790
    58  H    0.150460
    59  H    0.158318
    60  H    0.156661
    61  H    0.152503
    62  C   -0.450517
    63  H    0.146241
    64  H    0.140146
    65  H    0.140738
 Sum of Mulliken atomic charges =   0.00000

 Dipole moment (field-independent basis, Debye):
    X=             -5.0615    Y=              1.4235    Z=              3.0511  Tot=              6.0791
 Quadrupole moment (field-independent basis, Debye-Ang):
   XX=           -188.9865   YY=           -172.2716   ZZ=           -185.3471
   XY=              1.5904   XZ=              9.4786   YZ=              4.1272

 Normal termination of Gaussian 09 at Wed Mar 24 17:05:55 2021.
