 Gaussian 09, Revision B.01,
 Gaussian 09:  EM64L-G09RevB.01 12-Aug-2010

 ----------------------------------------
 # opt b3lyp/6-311+g(d) geom=connectivity
 ----------------------------------------

 -------------------
 Title Card Required
 -------------------
 Symbolic Z-matrix:
 Charge =  0 Multiplicity = 1

 SCF Done:  E(RB3LYP) =  -1387.64688798     A.U. after   18 cycles
 SCF Done:  E(RB3LYP) =  -1387.64743399     A.U. after   14 cycles
 SCF Done:  E(RB3LYP) =  -1387.64752466     A.U. after   13 cycles
 SCF Done:  E(RB3LYP) =  -1387.64782929     A.U. after   14 cycles
 SCF Done:  E(RB3LYP) =  -1387.64846672     A.U. after   15 cycles
 SCF Done:  E(RB3LYP) =  -1387.64898497     A.U. after   14 cycles
 SCF Done:  E(RB3LYP) =  -1387.64964569     A.U. after   15 cycles
 SCF Done:  E(RB3LYP) =  -1387.65030349     A.U. after   17 cycles
 SCF Done:  E(RB3LYP) =  -1387.64974183     A.U. after   16 cycles
 SCF Done:  E(RB3LYP) =  -1387.65027630     A.U. after   16 cycles
 SCF Done:  E(RB3LYP) =  -1387.65050234     A.U. after   14 cycles
 SCF Done:  E(RB3LYP) =  -1387.65059455     A.U. after   13 cycles
 SCF Done:  E(RB3LYP) =  -1387.65064267     A.U. after   13 cycles
 SCF Done:  E(RB3LYP) =  -1387.65064996     A.U. after   12 cycles
 SCF Done:  E(RB3LYP) =  -1387.65065301     A.U. after   12 cycles
 SCF Done:  E(RB3LYP) =  -1387.65065342     A.U. after   10 cycles
 SCF Done:  E(RB3LYP) =  -1387.65065368     A.U. after   10 cycles
 SCF Done:  E(RB3LYP) =  -1387.65065381     A.U. after    9 cycles
 SCF Done:  E(RB3LYP) =  -1387.65065392     A.U. after    9 cycles
 Optimization completed.
    -- Stationary point found.

                         Standard orientation:
 ---------------------------------------------------------------------
 Center     Atomic      Atomic             Coordinates (Angstroms)
 Number     Number       Type             X           Y           Z
 ---------------------------------------------------------------------
      1          6           0        1.913528    0.627862    2.790179
      2          6           0        2.268320    1.661944    2.023565
      3          6           0        1.728962    1.778170    0.618435
      4          6           0        1.373641    0.435148   -0.099515
      5          6           0        1.184340   -0.822323    0.817066
      6          6           0        0.981017   -0.452397    2.316094
      7          6           0        0.139362    0.791188   -0.989848
      8          6           0       -1.175651    0.291903   -0.416707
      9          6           0       -1.319673   -0.906573    0.185973
     10          6           0       -0.071577   -1.663134    0.453614
     11          6           0       -2.622375   -1.470269    0.684810
     12          8           0       -2.685935   -1.929690    1.807117
     13          6           0       -3.804279   -1.516382   -0.282711
     14          6           0       -5.156754   -1.556891    0.441443
     15          6           0       -3.606470   -2.752440   -1.188357
     16          8           0       -0.042177   -2.875035    0.509667
     17          6           0       -0.083522    2.315457   -0.912906
     18          6           0       -1.601403    2.469084   -1.149576
     19          8           0       -2.148328    1.195683   -0.600669
     20          6           0        0.458809    2.654607    0.486795
     21          8           0        0.255626    0.283522   -2.306908
     22          6           0        2.479892   -1.641466    0.593544
     23          6           0        3.361538   -0.771636   -0.318592
     24          8           0        2.432154    0.080853   -1.002888
     25          6           0        4.243852   -1.526027   -1.281862
     26          6           0        5.248144   -2.435754   -0.620915
     27          6           0        4.161006   -1.386113   -2.604425
     28          6           0       -1.957291    2.524931   -2.634624
     29          6           0       -2.284450    3.591601   -0.379630
     30          1           0        0.490270    2.827712   -1.688144
     31          1           0        2.497630    2.233642   -0.017707
     32          6           0        3.175412    2.765053    2.497954
     33          1           0        2.281657    0.560600    3.811677
     34          1           0       -0.058621   -0.145362    2.485338
     35          1           0        1.106792   -1.362521    2.907692
     36          1           0       -3.757804   -0.625508   -0.917041
     37          1           0       -5.163368   -2.405420    1.132051
     38          1           0       -5.934186   -1.757975   -0.305195
     39          1           0       -3.660424   -3.674964   -0.604472
     40          1           0       -2.640350   -2.735389   -1.698323
     41          1           0       -4.389150   -2.785026   -1.951179
     42          1           0        0.674640    3.717491    0.613720
     43          1           0       -0.259015    2.378358    1.264931
     44          1           0        1.164292   -0.050505   -2.394062
     45          1           0        2.229583   -2.588145    0.112980
     46          1           0        2.982984   -1.873513    1.533113
     47          1           0        4.008842   -0.133075    0.301555
     48          1           0        5.875276   -1.886985    0.091526
     49          1           0        4.757725   -3.235860   -0.056371
     50          1           0        5.905269   -2.900440   -1.357731
     51          1           0        4.816372   -1.940664   -3.268567
     52          1           0        3.449933   -0.715175   -3.070159
     53          1           0       -1.628033    3.475807   -3.063329
     54          1           0       -1.479814    1.715996   -3.186962
     55          1           0       -3.039765    2.452534   -2.764446
     56          1           0       -3.361064    3.574798   -0.562976
     57          1           0       -2.124142    3.509233    0.695670
     58          1           0       -1.902367    4.560610   -0.712292
     59          1           0        4.071903    2.839580    1.870991
     60          1           0        2.680728    3.742133    2.448393
     61          1           0        3.496783    2.607525    3.529712
     62          6           0       -5.501109   -0.272254    1.199736
     63          1           0       -5.513387    0.595787    0.532377
     64          1           0       -4.780243   -0.072815    1.996140
     65          1           0       -6.489269   -0.344845    1.663296
 ---------------------------------------------------------------------

 The electronic state is 1-A.
 Alpha  occ. eigenvalues --  -19.17836 -19.15119 -19.13544 -19.11052 -19.10692
 Alpha  occ. eigenvalues --  -10.26306 -10.26222 -10.26133 -10.25822 -10.25728
 Alpha  occ. eigenvalues --  -10.25727 -10.24006 -10.20796 -10.19912 -10.19768
 Alpha  occ. eigenvalues --  -10.19360 -10.19150 -10.18986 -10.18519 -10.18187
 Alpha  occ. eigenvalues --  -10.18080 -10.17866 -10.17726 -10.17675 -10.17506
 Alpha  occ. eigenvalues --  -10.17261 -10.17231 -10.16515 -10.15645 -10.15620
 Alpha  occ. eigenvalues --  -10.14742  -1.10243  -1.07732  -1.04916  -1.03815
 Alpha  occ. eigenvalues --   -1.03784  -0.88111  -0.84907  -0.83225  -0.82400
 Alpha  occ. eigenvalues --   -0.81083  -0.80332  -0.77872  -0.74897  -0.74155
 Alpha  occ. eigenvalues --   -0.73278  -0.72424  -0.71135  -0.69899  -0.69327
 Alpha  occ. eigenvalues --   -0.65707  -0.64995  -0.64348  -0.62748  -0.61887
 Alpha  occ. eigenvalues --   -0.60107  -0.59917  -0.57930  -0.56206  -0.54394
 Alpha  occ. eigenvalues --   -0.54256  -0.52959  -0.51994  -0.50968  -0.50458
 Alpha  occ. eigenvalues --   -0.49496  -0.48686  -0.48070  -0.47577  -0.47069
 Alpha  occ. eigenvalues --   -0.46036  -0.45378  -0.45163  -0.44446  -0.44117
 Alpha  occ. eigenvalues --   -0.43505  -0.43320  -0.43103  -0.42783  -0.42454
 Alpha  occ. eigenvalues --   -0.41901  -0.41796  -0.41434  -0.41045  -0.40965
 Alpha  occ. eigenvalues --   -0.40438  -0.40273  -0.39998  -0.39589  -0.39266
 Alpha  occ. eigenvalues --   -0.38690  -0.38590  -0.38309  -0.37339  -0.36936
 Alpha  occ. eigenvalues --   -0.36808  -0.36537  -0.36218  -0.35764  -0.35587
 Alpha  occ. eigenvalues --   -0.34971  -0.34676  -0.34130  -0.33533  -0.33374
 Alpha  occ. eigenvalues --   -0.32661  -0.32448  -0.31926  -0.29539  -0.28857
 Alpha  occ. eigenvalues --   -0.26155  -0.25909  -0.25497  -0.24664  -0.24100
 Alpha virt. eigenvalues --   -0.05542  -0.03185  -0.01588  -0.00821  -0.00739
 Alpha virt. eigenvalues --    0.00194   0.00342   0.00548   0.01449   0.01784
 Alpha virt. eigenvalues --    0.02015   0.02216   0.02657   0.03363   0.03567

 Mulliken atomic charges:
              1
     1  C   -0.690569
     2  C    0.994737
     3  C    0.032740
     4  C    0.357400
     5  C    1.312076
     6  C   -1.252706
     7  C   -0.879976
     8  C    0.099597
     9  C    0.567605
    10  C   -0.649503
    11  C   -0.672354
    12  O   -0.174672
    13  C    0.324678
    14  C   -0.248305
    15  C   -1.102924
    16  O   -0.158205
    17  C   -0.428837
    18  C    0.855975
    19  O    0.198983
    20  C   -1.678940
    21  O   -0.059406
    22  C   -0.697403
    23  C   -0.373233
    24  O    0.014761
    25  C    0.951439
    26  C   -1.151478
    27  C   -0.780765
    28  C   -0.690705
    29  C   -0.625567
    30  H    0.236764
    31  H    0.261527
    32  C   -1.202531
    33  H    0.207878
    34  H    0.276466
    35  H    0.264756
    36  H    0.234377
    37  H    0.258339
    38  H    0.217702
    39  H    0.275678
    40  H    0.281203
    41  H    0.255652
    42  H    0.263903
    43  H    0.294318
    44  H    0.281449
    45  H    0.296246
    46  H    0.259427
    47  H    0.255984
    48  H    0.253136
    49  H    0.265837
    50  H    0.259955
    51  H    0.220808
    52  H    0.229096
    53  H    0.248554
    54  H    0.314268
    55  H    0.263373
    56  H    0.272130
    57  H    0.265722
    58  H    0.264022
    59  H    0.258830
    60  H    0.247268
    61  H    0.250725
    62  C   -0.956252
    63  H    0.227967
    64  H    0.257187
    65  H    0.243791
 Sum of Mulliken atomic charges =   0.00000

 Dipole moment (field-independent basis, Debye):
    X=              3.0104    Y=              5.7952    Z=             -0.8080  Tot=              6.5803
 Quadrupole moment (field-independent basis, Debye-Ang):
   XX=           -180.1831   YY=           -188.6179   ZZ=           -191.6302
   XY=             -8.6583   XZ=             11.2789   YZ=              4.1974

 Normal termination of Gaussian 09 at Tue Apr 13 23:16:43 2021.
