 Gaussian 09, Revision B.01,
 Gaussian 09:  EM64L-G09RevB.01 12-Aug-2010

 ----------------------------------------
 # opt b3lyp/6-311+g(d) geom=connectivity
 ----------------------------------------

 -------------------
 Title Card Required
 -------------------
 Symbolic Z-matrix:
 Charge =  0 Multiplicity = 1

 SCF Done:  E(RB3LYP) =  -1387.64838301     A.U. after   17 cycles
 SCF Done:  E(RB3LYP) =  -1387.64875490     A.U. after   13 cycles
 SCF Done:  E(RB3LYP) =  -1387.64601145     A.U. after   16 cycles
 SCF Done:  E(RB3LYP) =  -1387.64893341     A.U. after   16 cycles
 SCF Done:  E(RB3LYP) =  -1387.64898208     A.U. after   13 cycles
 SCF Done:  E(RB3LYP) =  -1387.64904014     A.U. after   14 cycles
 SCF Done:  E(RB3LYP) =  -1387.64909696     A.U. after   12 cycles
 SCF Done:  E(RB3LYP) =  -1387.64910910     A.U. after   12 cycles
 SCF Done:  E(RB3LYP) =  -1387.64910632     A.U. after   12 cycles
 SCF Done:  E(RB3LYP) =  -1387.64910837     A.U. after   11 cycles
 SCF Done:  E(RB3LYP) =  -1387.64910930     A.U. after   10 cycles
 SCF Done:  E(RB3LYP) =  -1387.64910958     A.U. after   10 cycles
 SCF Done:  E(RB3LYP) =  -1387.64910979     A.U. after   10 cycles
 Optimization completed.
    -- Stationary point found.

                         Standard orientation:
 ---------------------------------------------------------------------
 Center     Atomic      Atomic             Coordinates (Angstroms)
 Number     Number       Type             X           Y           Z
 ---------------------------------------------------------------------
      1          6           0        1.612616    0.055141    3.137594
      2          6           0        1.671633    1.293942    2.646500
      3          6           0        1.730062    1.553052    1.158235
      4          6           0        1.480428    0.325634    0.223308
      5          6           0        1.090406   -1.040912    0.865657
      6          6           0        1.641799   -1.193126    2.307063
      7          6           0        0.432035    0.837806   -0.801119
      8          6           0       -0.999045    0.609403   -0.365528
      9          6           0       -1.420740   -0.466712    0.340343
     10          6           0       -0.425932   -1.385960    0.894749
     11          6           0       -2.885912   -0.679877    0.642369
     12          8           0       -3.543767    0.219868    1.122613
     13          6           0       -3.526971   -2.025940    0.291062
     14          6           0       -4.634874   -1.813665   -0.763506
     15          6           0       -4.092016   -2.678436    1.563383
     16          8           0       -0.759570   -2.423982    1.450564
     17          6           0        0.453116    2.378668   -0.787007
     18          6           0       -0.963210    2.749919   -1.284917
     19          8           0       -1.779105    1.599507   -0.792788
     20          6           0        0.753892    2.670141    0.692612
     21          8           0        0.588933    0.244088   -2.076900
     22          6           0        1.815705   -2.052921   -0.060351
     23          6           0        3.114516   -1.314769   -0.386465
     24          8           0        2.693417    0.064625   -0.540091
     25          6           0        3.884708   -1.794513   -1.595931
     26          6           0        3.301920   -1.582452   -2.969198
     27          6           0        5.053541   -2.413686   -1.415660
     28          6           0       -1.073618    2.788056   -2.808009
     29          6           0       -1.581222    3.998834   -0.668467
     30          1           0        1.228920    2.776014   -1.445559
     31          1           0        2.747951    1.882409    0.913951
     32          6           0        1.742200    2.503670    3.543239
     33          1           0        1.596990   -0.084448    4.216728
     34          1           0        2.677917   -1.553198    2.264381
     35          1           0        1.080431   -1.994815    2.790464
     36          1           0       -2.758637   -2.681750   -0.126780
     37          1           0       -5.141139   -2.774954   -0.909160
     38          1           0       -5.382576   -1.128847   -0.350463
     39          1           0       -3.299695   -2.874984    2.287538
     40          1           0       -4.570150   -3.631215    1.317950
     41          1           0       -4.838431   -2.030540    2.029268
     42          1           0        1.166728    3.668164    0.848746
     43          1           0       -0.165083    2.610108    1.281240
     44          1           0        1.547238    0.140357   -2.189802
     45          1           0        1.236278   -2.238776   -0.967296
     46          1           0        1.985345   -3.007695    0.438813
     47          1           0        3.789115   -1.361423    0.475072
     48          1           0        2.272215   -1.943403   -3.047800
     49          1           0        3.298112   -0.519673   -3.235521
     50          1           0        3.893296   -2.099135   -3.727039
     51          1           0        5.617306   -2.824302   -2.247331
     52          1           0        5.488910   -2.539623   -0.429004
     53          1           0       -2.120990    2.880775   -3.104580
     54          1           0       -0.535165    3.656551   -3.198457
     55          1           0       -0.657242    1.889429   -3.260330
     56          1           0       -0.995174    4.880098   -0.944127
     57          1           0       -2.597456    4.138714   -1.042631
     58          1           0       -1.631179    3.942090    0.418366
     59          1           0        1.777209    2.213707    4.595211
     60          1           0        2.637151    3.101226    3.330298
     61          1           0        0.883032    3.169319    3.411441
     62          6           0       -4.139313   -1.291596   -2.115043
     63          1           0       -4.963653   -1.222247   -2.830810
     64          1           0       -3.697846   -0.294510   -2.031234
     65          1           0       -3.383324   -1.954499   -2.548216
 ---------------------------------------------------------------------

 The electronic state is 1-A.
 Alpha  occ. eigenvalues --  -19.17741 -19.14768 -19.14081 -19.10662 -19.10647
 Alpha  occ. eigenvalues --  -10.26727 -10.26534 -10.25929 -10.25651 -10.25465
 Alpha  occ. eigenvalues --  -10.25429 -10.24183 -10.20914 -10.19905 -10.19831
 Alpha  occ. eigenvalues --  -10.19522 -10.18761 -10.18631 -10.18505 -10.18425
 Alpha  occ. eigenvalues --  -10.18079 -10.17835 -10.17626 -10.17573 -10.17207
 Alpha  occ. eigenvalues --  -10.17077 -10.16991 -10.16772 -10.15896 -10.14907
 Alpha  occ. eigenvalues --  -10.14490  -1.10455  -1.07040  -1.04564  -1.03898
 Alpha  occ. eigenvalues --   -1.03881  -0.87725  -0.84650  -0.83463  -0.82445
 Alpha  occ. eigenvalues --   -0.81227  -0.80002  -0.77745  -0.75197  -0.74155
 Alpha  occ. eigenvalues --   -0.72653  -0.72153  -0.70913  -0.70733  -0.68749
 Alpha  occ. eigenvalues --   -0.66179  -0.64659  -0.63976  -0.62430  -0.61573
 Alpha  occ. eigenvalues --   -0.60454  -0.59806  -0.58041  -0.55829  -0.54973
 Alpha  occ. eigenvalues --   -0.53723  -0.53271  -0.51667  -0.51439  -0.50503
 Alpha  occ. eigenvalues --   -0.49257  -0.48569  -0.47945  -0.47240  -0.46626
 Alpha  occ. eigenvalues --   -0.46068  -0.45439  -0.45032  -0.44680  -0.44540
 Alpha  occ. eigenvalues --   -0.43608  -0.42966  -0.42661  -0.42438  -0.42362
 Alpha  occ. eigenvalues --   -0.41896  -0.41567  -0.41234  -0.41087  -0.40780
 Alpha  occ. eigenvalues --   -0.40206  -0.40062  -0.39356  -0.39262  -0.38887
 Alpha  occ. eigenvalues --   -0.38718  -0.38311  -0.38213  -0.37727  -0.37649
 Alpha  occ. eigenvalues --   -0.37320  -0.36147  -0.36027  -0.35545  -0.35431
 Alpha  occ. eigenvalues --   -0.34835  -0.34627  -0.33955  -0.33559  -0.33200
 Alpha  occ. eigenvalues --   -0.32475  -0.32263  -0.31560  -0.29563  -0.28353
 Alpha  occ. eigenvalues --   -0.26919  -0.26046  -0.25304  -0.24524  -0.24069
 Alpha virt. eigenvalues --   -0.06092  -0.02819  -0.01582  -0.01026  -0.00270
 Alpha virt. eigenvalues --    0.00126   0.00333   0.01189   0.01481   0.01849
 Alpha virt. eigenvalues --    0.02002   0.02524   0.02848   0.03346   0.03594

 Mulliken atomic charges:
              1
     1  C   -0.315914
     2  C    0.568683
     3  C   -0.258240
     4  C   -0.214478
     5  C    1.354818
     6  C   -0.965897
     7  C   -1.179850
     8  C    0.359419
     9  C    0.751631
    10  C   -0.712713
    11  C    0.044211
    12  O   -0.186805
    13  C    0.250638
    14  C   -0.368808
    15  C   -1.101747
    16  O   -0.198314
    17  C   -0.356374
    18  C    0.568669
    19  O    0.142692
    20  C   -1.050324
    21  O    0.027431
    22  C   -0.847592
    23  C   -0.467667
    24  O    0.025913
    25  C    1.082039
    26  C   -1.173024
    27  C   -0.977339
    28  C   -0.794648
    29  C   -0.698940
    30  H    0.234597
    31  H    0.276411
    32  C   -1.089520
    33  H    0.204376
    34  H    0.252717
    35  H    0.280984
    36  H    0.231065
    37  H    0.222096
    38  H    0.264148
    39  H    0.277039
    40  H    0.232643
    41  H    0.268829
    42  H    0.265588
    43  H    0.283500
    44  H    0.257376
    45  H    0.264683
    46  H    0.275932
    47  H    0.221063
    48  H    0.285040
    49  H    0.279998
    50  H    0.263217
    51  H    0.227828
    52  H    0.217274
    53  H    0.265813
    54  H    0.254671
    55  H    0.312608
    56  H    0.260625
    57  H    0.270538
    58  H    0.264675
    59  H    0.256123
    60  H    0.255353
    61  H    0.260300
    62  C   -0.964838
    63  H    0.247359
    64  H    0.269693
    65  H    0.242729
 Sum of Mulliken atomic charges =   0.00000

 Dipole moment (field-independent basis, Debye):
    X=              4.6365    Y=              2.4555    Z=             -2.0114  Tot=              5.6189
 Quadrupole moment (field-independent basis, Debye-Ang):
   XX=           -194.7003   YY=           -179.2912   ZZ=           -186.2287
   XY=             -2.0666   XZ=              6.1803   YZ=              1.9338

 Normal termination of Gaussian 09 at Tue Apr 13 18:36:13 2021.
