 Gaussian 09, Revision B.01,
 Gaussian 09:  EM64L-G09RevB.01 12-Aug-2010

 ----------------------------------------
 # opt b3lyp/6-311+g(d) geom=connectivity
 ----------------------------------------

 -------------------
 Title Card Required
 -------------------
 Symbolic Z-matrix:
 Charge =  0 Multiplicity = 1

 SCF Done:  E(RB3LYP) =  -1387.64765855     A.U. after   17 cycles
 SCF Done:  E(RB3LYP) =  -1387.64829656     A.U. after   16 cycles
 SCF Done:  E(RB3LYP) =  -1387.64824465     A.U. after   14 cycles
 SCF Done:  E(RB3LYP) =  -1387.64859414     A.U. after   14 cycles
 SCF Done:  E(RB3LYP) =  -1387.64871707     A.U. after   14 cycles
 SCF Done:  E(RB3LYP) =  -1387.64882030     A.U. after   15 cycles
 SCF Done:  E(RB3LYP) =  -1387.64909703     A.U. after   13 cycles
 SCF Done:  E(RB3LYP) =  -1387.64902325     A.U. after   15 cycles
 SCF Done:  E(RB3LYP) =  -1387.64914790     A.U. after   15 cycles
 SCF Done:  E(RB3LYP) =  -1387.64917253     A.U. after   13 cycles
 SCF Done:  E(RB3LYP) =  -1387.64918105     A.U. after   13 cycles
 SCF Done:  E(RB3LYP) =  -1387.64917575     A.U. after   13 cycles
 SCF Done:  E(RB3LYP) =  -1387.64918935     A.U. after   13 cycles
 SCF Done:  E(RB3LYP) =  -1387.64919375     A.U. after   12 cycles
 SCF Done:  E(RB3LYP) =  -1387.64919556     A.U. after   12 cycles
 SCF Done:  E(RB3LYP) =  -1387.64919511     A.U. after   11 cycles
 SCF Done:  E(RB3LYP) =  -1387.64919589     A.U. after   10 cycles
 SCF Done:  E(RB3LYP) =  -1387.64919612     A.U. after   10 cycles
 Optimization completed.
    -- Stationary point found.

                         Standard orientation:
 ---------------------------------------------------------------------
 Center     Atomic      Atomic             Coordinates (Angstroms)
 Number     Number       Type             X           Y           Z
 ---------------------------------------------------------------------
      1          6           0        1.799845    0.757468    3.004377
      2          6           0        1.929822    1.819961    2.208612
      3          6           0        1.910597    1.690209    0.703635
      4          6           0        1.520386    0.291622    0.125155
      5          6           0        1.056448   -0.825182    1.110218
      6          6           0        1.669242   -0.657541    2.526084
      7          6           0        0.467014    0.618464   -0.970249
      8          6           0       -0.954899    0.621429   -0.457055
      9          6           0       -1.420601   -0.187201    0.519322
     10          6           0       -0.478308   -1.014326    1.272502
     11          6           0       -2.879116   -0.163291    0.938750
     12          8           0       -3.362062    0.858142    1.376744
     13          6           0       -3.685536   -1.442272    0.740295
     14          6           0       -3.983737   -1.600992   -0.773682
     15          6           0       -4.948368   -1.442169    1.603902
     16          8           0       -0.866966   -1.839464    2.088896
     17          6           0        0.597689    2.109159   -1.341015
     18          6           0       -0.809189    2.458092   -1.882416
     19          8           0       -1.684451    1.529896   -1.106301
     20          6           0        0.984567    2.729413    0.011422
     21          8           0        0.524202   -0.281945   -2.062252
     22          6           0        1.649569   -2.100427    0.454259
     23          6           0        2.985188   -1.591224   -0.087873
     24          8           0        2.671750   -0.261644   -0.575368
     25          6           0        3.647317   -2.430446   -1.157178
     26          6           0        3.011100   -2.518787   -2.520425
     27          6           0        4.768774   -3.090989   -0.860415
     28          6           0       -0.978618    2.133802   -3.365453
     29          6           0       -1.307805    3.865123   -1.576779
     30          1           0        1.370431    2.269468   -2.096549
     31          1           0        2.930649    1.862857    0.337336
     32          6           0        2.157471    3.204228    2.760385
     33          1           0        1.841961    0.898128    4.082700
     34          1           0        2.663902   -1.121538    2.548273
     35          1           0        1.064344   -1.246730    3.217862
     36          1           0       -3.034736   -2.269718    1.042476
     37          1           0       -4.663495   -0.799589   -1.086185
     38          1           0       -3.057998   -1.455117   -1.340455
     39          1           0       -4.700923   -1.297425    2.657844
     40          1           0       -5.481584   -2.391195    1.514599
     41          1           0       -5.627174   -0.636881    1.313611
     42          1           0        0.092760    2.878024    0.625751
     43          1           0        1.466258    3.703027   -0.093470
     44          1           0        1.466102   -0.488430   -2.170699
     45          1           0        1.766801   -2.909729    1.176063
     46          1           0        1.011336   -2.455814   -0.357476
     47          1           0        3.697677   -1.482317    0.736640
     48          1           0        3.095214   -1.566631   -3.056066
     49          1           0        1.948617   -2.773935   -2.471261
     50          1           0        3.506477   -3.274034   -3.133009
     51          1           0        5.250543   -3.749968   -1.575804
     52          1           0        5.245079   -3.003250    0.111364
     53          1           0       -2.028796    2.230556   -3.650941
     54          1           0       -0.398921    2.837525   -3.969990
     55          1           0       -0.642432    1.123238   -3.591617
     56          1           0       -0.669381    4.602733   -2.071215
     57          1           0       -1.317536    4.076291   -0.507982
     58          1           0       -2.325110    3.993834   -1.952641
     59          1           0        2.237512    3.187064    3.849051
     60          1           0        3.082254    3.640459    2.362902
     61          1           0        1.348366    3.893618    2.497961
     62          6           0       -4.577423   -2.961833   -1.147644
     63          1           0       -4.713023   -3.038959   -2.230416
     64          1           0       -5.553939   -3.128851   -0.686460
     65          1           0       -3.919592   -3.780338   -0.838338
 ---------------------------------------------------------------------

 The electronic state is 1-A.
 Alpha  occ. eigenvalues --  -19.17593 -19.14720 -19.14053 -19.10926 -19.10650
 Alpha  occ. eigenvalues --  -10.26531 -10.26493 -10.25874 -10.25791 -10.25414
 Alpha  occ. eigenvalues --  -10.25393 -10.24143 -10.20891 -10.19879 -10.19784
 Alpha  occ. eigenvalues --  -10.19447 -10.18690 -10.18605 -10.18423 -10.18325
 Alpha  occ. eigenvalues --  -10.18059 -10.17777 -10.17599 -10.17543 -10.17125
 Alpha  occ. eigenvalues --  -10.16997 -10.16993 -10.16975 -10.16642 -10.15514
 Alpha  occ. eigenvalues --  -10.14565  -1.10269  -1.06964  -1.04634  -1.03994
 Alpha  occ. eigenvalues --   -1.03834  -0.87667  -0.84610  -0.83435  -0.82429
 Alpha  occ. eigenvalues --   -0.81178  -0.80498  -0.77688  -0.75148  -0.74107
 Alpha  occ. eigenvalues --   -0.72676  -0.72217  -0.70885  -0.70709  -0.68692
 Alpha  occ. eigenvalues --   -0.66567  -0.65328  -0.64017  -0.62498  -0.61514
 Alpha  occ. eigenvalues --   -0.60343  -0.59296  -0.57990  -0.55873  -0.54981
 Alpha  occ. eigenvalues --   -0.53814  -0.53215  -0.51706  -0.51425  -0.50465
 Alpha  occ. eigenvalues --   -0.49018  -0.48442  -0.47853  -0.47259  -0.46580
 Alpha  occ. eigenvalues --   -0.46125  -0.45672  -0.45307  -0.44867  -0.44573
 Alpha  occ. eigenvalues --   -0.44361  -0.43368  -0.42910  -0.42420  -0.42351
 Alpha  occ. eigenvalues --   -0.42236  -0.41655  -0.41470  -0.40945  -0.40337
 Alpha  occ. eigenvalues --   -0.40053  -0.39349  -0.39219  -0.38836  -0.38754
 Alpha  occ. eigenvalues --   -0.38527  -0.38443  -0.38205  -0.37723  -0.37636
 Alpha  occ. eigenvalues --   -0.37340  -0.36514  -0.36046  -0.35801  -0.35499
 Alpha  occ. eigenvalues --   -0.35033  -0.34784  -0.34536  -0.33885  -0.33163
 Alpha  occ. eigenvalues --   -0.32625  -0.32298  -0.31991  -0.29513  -0.28316
 Alpha  occ. eigenvalues --   -0.26885  -0.26039  -0.25291  -0.24484  -0.24104
 Alpha virt. eigenvalues --   -0.05912  -0.02417  -0.01546  -0.00988  -0.00277
 Alpha virt. eigenvalues --    0.00168   0.00415   0.01087   0.01507   0.01885
 Alpha virt. eigenvalues --    0.01933   0.02551   0.02789   0.03305   0.03509

 Mulliken atomic charges:
              1
     1  C   -0.205562
     2  C    0.498151
     3  C   -0.219254
     4  C   -0.272677
     5  C    1.648892
     6  C   -1.100379
     7  C   -1.155942
     8  C    0.461146
     9  C    0.817337
    10  C   -0.675724
    11  C   -0.536463
    12  O   -0.168323
    13  C    0.340222
    14  C   -0.190866
    15  C   -1.130227
    16  O   -0.200243
    17  C   -0.202751
    18  C    0.519613
    19  O    0.163986
    20  C   -1.189452
    21  O    0.024762
    22  C   -0.876175
    23  C   -0.417160
    24  O    0.039439
    25  C    1.047897
    26  C   -1.161091
    27  C   -0.990122
    28  C   -0.760178
    29  C   -0.665235
    30  H    0.231016
    31  H    0.277540
    32  C   -1.104345
    33  H    0.201838
    34  H    0.254261
    35  H    0.280411
    36  H    0.275410
    37  H    0.249767
    38  H    0.262989
    39  H    0.259296
    40  H    0.237983
    41  H    0.270774
    42  H    0.293522
    43  H    0.266354
    44  H    0.255573
    45  H    0.274770
    46  H    0.266526
    47  H    0.221240
    48  H    0.280649
    49  H    0.284283
    50  H    0.262878
    51  H    0.228133
    52  H    0.217645
    53  H    0.262928
    54  H    0.250381
    55  H    0.308186
    56  H    0.262149
    57  H    0.266106
    58  H    0.268785
    59  H    0.255991
    60  H    0.254661
    61  H    0.260006
    62  C   -1.117173
    63  H    0.243755
    64  H    0.244968
    65  H    0.247120
 Sum of Mulliken atomic charges =   0.00000

 Dipole moment (field-independent basis, Debye):
    X=              4.4260    Y=              1.3461    Z=             -3.1352  Tot=              5.5885
 Quadrupole moment (field-independent basis, Debye-Ang):
   XX=           -192.9889   YY=           -179.0445   ZZ=           -188.2482
   XY=              1.1318   XZ=              8.3115   YZ=             -0.7608

 Normal termination of Gaussian 09 at Tue Apr 13 22:38:05 2021.
