 Gaussian 09, Revision B.01,
 Gaussian 09:  EM64L-G09RevB.01 12-Aug-2010

 ----------------------------------------
 # opt b3lyp/6-311+g(d) geom=connectivity
 ----------------------------------------

 -------------------
 Title Card Required
 -------------------
 Symbolic Z-matrix:
 Charge =  0 Multiplicity = 1

 SCF Done:  E(RB3LYP) =  -1387.64984870     A.U. after   17 cycles
 SCF Done:  E(RB3LYP) =  -1387.65038402     A.U. after   14 cycles
 SCF Done:  E(RB3LYP) =  -1387.65050566     A.U. after   13 cycles
 SCF Done:  E(RB3LYP) =  -1387.65060500     A.U. after   14 cycles
 SCF Done:  E(RB3LYP) =  -1387.65077828     A.U. after   14 cycles
 SCF Done:  E(RB3LYP) =  -1387.65092241     A.U. after   14 cycles
 SCF Done:  E(RB3LYP) =  -1387.65130579     A.U. after   13 cycles
 SCF Done:  E(RB3LYP) =  -1387.65144090     A.U. after   14 cycles
 SCF Done:  E(RB3LYP) =  -1387.65141081     A.U. after   14 cycles
 SCF Done:  E(RB3LYP) =  -1387.65157379     A.U. after   14 cycles
 SCF Done:  E(RB3LYP) =  -1387.65170920     A.U. after   14 cycles
 SCF Done:  E(RB3LYP) =  -1387.65161777     A.U. after   14 cycles
 SCF Done:  E(RB3LYP) =  -1387.65172137     A.U. after   14 cycles
 SCF Done:  E(RB3LYP) =  -1387.65173486     A.U. after   13 cycles
 SCF Done:  E(RB3LYP) =  -1387.65173925     A.U. after   12 cycles
 SCF Done:  E(RB3LYP) =  -1387.65174521     A.U. after   13 cycles
 SCF Done:  E(RB3LYP) =  -1387.65174691     A.U. after   13 cycles
 SCF Done:  E(RB3LYP) =  -1387.65174702     A.U. after   10 cycles
 SCF Done:  E(RB3LYP) =  -1387.65174654     A.U. after   11 cycles
 SCF Done:  E(RB3LYP) =  -1387.65174676     A.U. after   10 cycles
 Optimization completed.
    -- Stationary point found.

                         Standard orientation:
 ---------------------------------------------------------------------
 Center     Atomic      Atomic             Coordinates (Angstroms)
 Number     Number       Type             X           Y           Z
 ---------------------------------------------------------------------
      1          6           0        1.911981    0.861010    2.762015
      2          6           0        2.320319    1.798361    1.903145
      3          6           0        1.796649    1.798269    0.486914
      4          6           0        1.408393    0.403743   -0.107015
      5          6           0        1.182322   -0.750856    0.927623
      6          6           0        0.947735   -0.226574    2.374442
      7          6           0        0.186763    0.708957   -1.034994
      8          6           0       -1.141144    0.282073   -0.434959
      9          6           0       -1.309986   -0.861325    0.261652
     10          6           0       -0.073189   -1.609292    0.604697
     11          6           0       -2.622792   -1.365713    0.793930
     12          8           0       -2.693716   -1.756929    1.941594
     13          6           0       -3.808636   -1.445035   -0.167046
     14          6           0       -5.158885   -1.414885    0.561817
     15          6           0       -3.639035   -2.736602   -0.997771
     16          8           0       -0.056311   -2.815063    0.740458
     17          6           0       -0.005242    2.238542   -1.089115
     18          6           0       -1.519905    2.402633   -1.340979
     19          8           0       -2.094396    1.187019   -0.697195
     20          6           0        0.547200    2.688488    0.274211
     21          8           0        0.303578    0.092050   -2.304900
     22          6           0        2.475553   -1.596086    0.829958
     23          6           0        3.372522   -0.877392   -0.191707
     24          8           0        2.457109   -0.068311   -0.964012
     25          6           0        4.171769   -1.774096   -1.106479
     26          6           0        3.420807   -2.579790   -2.134120
     27          6           0        5.496195   -1.849332   -0.961208
     28          6           0       -1.872357    2.349922   -2.827033
     29          6           0       -2.181663    3.594832   -0.662327
     30          1           0        0.577281    2.668735   -1.906620
     31          1           0        2.579625    2.175600   -0.181908
     32          6           0        3.266118    2.906052    2.281025
     33          1           0        2.264481    0.878577    3.790984
     34          1           0        1.023628   -1.075489    3.058526
     35          1           0       -0.083278    0.132782    2.477883
     36          1           0       -3.747329   -0.594753   -0.853411
     37          1           0       -5.179305   -2.218835    1.303552
     38          1           0       -5.943011   -1.646197   -0.168892
     39          1           0       -2.675305   -2.768561   -1.511692
     40          1           0       -4.425947   -2.799905   -1.754340
     41          1           0       -3.707555   -3.621389   -0.359504
     42          1           0       -0.175824    2.498794    1.073080
     43          1           0        0.787121    3.753324    0.306516
     44          1           0        1.217995   -0.231769   -2.367864
     45          1           0        2.984728   -1.680093    1.790868
     46          1           0        2.221132   -2.607185    0.512509
     47          1           0        4.058718   -0.200688    0.329201
     48          1           0        3.013855   -1.933387   -2.917994
     49          1           0        2.573849   -3.117598   -1.698142
     50          1           0        4.074722   -3.309670   -2.614648
     51          1           0        6.099395   -2.525934   -1.558307
     52          1           0        6.027127   -1.242507   -0.233720
     53          1           0       -2.955772    2.288622   -2.954621
     54          1           0       -1.523620    3.257879   -3.327386
     55          1           0       -1.410240    1.491277   -3.313782
     56          1           0       -1.778938    4.527481   -1.066743
     57          1           0       -2.025681    3.592413    0.416793
     58          1           0       -3.257936    3.585886   -0.847960
     59          1           0        3.568496    2.838707    3.328246
     60          1           0        4.172461    2.882550    1.664247
     61          1           0        2.812842    3.892448    2.127503
     62          6           0       -5.474484   -0.079112    1.239978
     63          1           0       -5.472131    0.745751    0.519765
     64          1           0       -4.745996    0.154774    2.019943
     65          1           0       -6.461752   -0.102530    1.710429
 ---------------------------------------------------------------------

 The electronic state is 1-A.
 Alpha  occ. eigenvalues --  -19.17871 -19.15006 -19.13571 -19.11164 -19.10682
 Alpha  occ. eigenvalues --  -10.26370 -10.26263 -10.26168 -10.25748 -10.25739
 Alpha  occ. eigenvalues --  -10.25730 -10.23807 -10.20716 -10.19908 -10.19735
 Alpha  occ. eigenvalues --  -10.19343 -10.19282 -10.18946 -10.18491 -10.18224
 Alpha  occ. eigenvalues --  -10.18108 -10.17839 -10.17673 -10.17460 -10.17286
 Alpha  occ. eigenvalues --  -10.17283 -10.17101 -10.17087 -10.15682 -10.15668
 Alpha  occ. eigenvalues --  -10.14769  -1.10268  -1.07512  -1.04978  -1.03832
 Alpha  occ. eigenvalues --   -1.03720  -0.88080  -0.84920  -0.83204  -0.82391
 Alpha  occ. eigenvalues --   -0.81060  -0.80358  -0.77848  -0.74849  -0.74102
 Alpha  occ. eigenvalues --   -0.73238  -0.72430  -0.71169  -0.70141  -0.69200
 Alpha  occ. eigenvalues --   -0.65753  -0.64992  -0.64203  -0.62782  -0.61754
 Alpha  occ. eigenvalues --   -0.60045  -0.59872  -0.57910  -0.56249  -0.54430
 Alpha  occ. eigenvalues --   -0.54234  -0.52844  -0.52106  -0.51011  -0.50444
 Alpha  occ. eigenvalues --   -0.49484  -0.48591  -0.48141  -0.47596  -0.46994
 Alpha  occ. eigenvalues --   -0.46045  -0.45367  -0.45269  -0.44479  -0.44083
 Alpha  occ. eigenvalues --   -0.43871  -0.43308  -0.42975  -0.42346  -0.42212
 Alpha  occ. eigenvalues --   -0.41958  -0.41847  -0.41401  -0.41085  -0.40960
 Alpha  occ. eigenvalues --   -0.40570  -0.40080  -0.39955  -0.39600  -0.38804
 Alpha  occ. eigenvalues --   -0.38622  -0.38468  -0.38340  -0.37699  -0.37025
 Alpha  occ. eigenvalues --   -0.36819  -0.36751  -0.36291  -0.35760  -0.35532
 Alpha  occ. eigenvalues --   -0.34964  -0.34594  -0.34139  -0.33543  -0.33193
 Alpha  occ. eigenvalues --   -0.32719  -0.32515  -0.31971  -0.29534  -0.28888
 Alpha  occ. eigenvalues --   -0.26513  -0.25962  -0.25487  -0.24676  -0.24121
 Alpha virt. eigenvalues --   -0.05638  -0.03252  -0.01506  -0.01232  -0.00566
 Alpha virt. eigenvalues --   -0.00133   0.00276   0.00500   0.01571   0.01822
 Alpha virt. eigenvalues --    0.01895   0.02257   0.02736   0.03240   0.03490

 Mulliken atomic charges:
              1
     1  C   -0.811269
     2  C    0.973189
     3  C   -0.103831
     4  C    0.430218
     5  C    1.192342
     6  C   -1.272354
     7  C   -0.800201
     8  C    0.199626
     9  C    0.612637
    10  C   -0.661622
    11  C   -0.731126
    12  O   -0.171840
    13  C    0.331560
    14  C   -0.242910
    15  C   -1.103273
    16  O   -0.142426
    17  C   -0.567682
    18  C    0.942291
    19  O    0.193178
    20  C   -1.449596
    21  O   -0.062751
    22  C   -0.507682
    23  C   -0.299169
    24  O    0.053942
    25  C    0.752557
    26  C   -1.100117
    27  C   -0.992314
    28  C   -0.698503
    29  C   -0.615449
    30  H    0.240859
    31  H    0.262537
    32  C   -1.181623
    33  H    0.208786
    34  H    0.270863
    35  H    0.275048
    36  H    0.235039
    37  H    0.258539
    38  H    0.217249
    39  H    0.279451
    40  H    0.255771
    41  H    0.275847
    42  H    0.291027
    43  H    0.262649
    44  H    0.283823
    45  H    0.257608
    46  H    0.304434
    47  H    0.244346
    48  H    0.265474
    49  H    0.284145
    50  H    0.260316
    51  H    0.228456
    52  H    0.214409
    53  H    0.262938
    54  H    0.248073
    55  H    0.313662
    56  H    0.264047
    57  H    0.264313
    58  H    0.271462
    59  H    0.250692
    60  H    0.261808
    61  H    0.248147
    62  C   -0.956725
    63  H    0.227974
    64  H    0.257161
    65  H    0.243974
 Sum of Mulliken atomic charges =   0.00000

 Dipole moment (field-independent basis, Debye):
    X=              2.7508    Y=              5.7044    Z=             -1.7244  Tot=              6.5635
 Quadrupole moment (field-independent basis, Debye-Ang):
   XX=           -182.6965   YY=           -187.6472   ZZ=           -191.6767
   XY=             -6.0286   XZ=             10.3285   YZ=              5.9156

 Normal termination of Gaussian 09 at Tue Apr 13 17:45:53 2021.
