 Gaussian 09, Revision B.01,
 Gaussian 09:  EM64L-G09RevB.01 12-Aug-2010

 ----------------------------------------
 # opt b3lyp/6-311+g(d) geom=connectivity
 ----------------------------------------

 -------------------
 Title Card Required
 -------------------
 Symbolic Z-matrix:
 Charge =  0 Multiplicity = 1

 SCF Done:  E(RB3LYP) =  -1387.64709004     A.U. after   17 cycles
 SCF Done:  E(RB3LYP) =  -1387.64757416     A.U. after   13 cycles
 SCF Done:  E(RB3LYP) =  -1387.64691751     A.U. after   15 cycles
 SCF Done:  E(RB3LYP) =  -1387.64769986     A.U. after   14 cycles
 SCF Done:  E(RB3LYP) =  -1387.64779103     A.U. after   14 cycles
 SCF Done:  E(RB3LYP) =  -1387.64788859     A.U. after   14 cycles
 SCF Done:  E(RB3LYP) =  -1387.64798373     A.U. after   18 cycles
 SCF Done:  E(RB3LYP) =  -1387.64810097     A.U. after   13 cycles
 SCF Done:  E(RB3LYP) =  -1387.64821165     A.U. after   14 cycles
 SCF Done:  E(RB3LYP) =  -1387.64825418     A.U. after   13 cycles
 SCF Done:  E(RB3LYP) =  -1387.64828606     A.U. after   14 cycles
 SCF Done:  E(RB3LYP) =  -1387.64830791     A.U. after   14 cycles
 SCF Done:  E(RB3LYP) =  -1387.64831698     A.U. after   13 cycles
 SCF Done:  E(RB3LYP) =  -1387.64832164     A.U. after   12 cycles
 SCF Done:  E(RB3LYP) =  -1387.64832326     A.U. after   12 cycles
 SCF Done:  E(RB3LYP) =  -1387.64832460     A.U. after   12 cycles
 SCF Done:  E(RB3LYP) =  -1387.64832523     A.U. after   10 cycles
 SCF Done:  E(RB3LYP) =  -1387.64832540     A.U. after    9 cycles
 Optimization completed.
    -- Stationary point found.

                         Standard orientation:
 ---------------------------------------------------------------------
 Center     Atomic      Atomic             Coordinates (Angstroms)
 Number     Number       Type             X           Y           Z
 ---------------------------------------------------------------------
      1          6           0       -2.525812    0.172302   -2.679089
      2          6           0       -3.209261    0.841249   -1.747407
      3          6           0       -2.588798    1.078596   -0.392262
      4          6           0       -1.595998   -0.020240    0.106845
      5          6           0       -0.990185   -0.956417   -0.981225
      6          6           0       -1.152863   -0.386225   -2.424055
      7          6           0       -0.528054    0.784928    0.923480
      8          6           0        0.790896    0.950429    0.188015
      9          6           0        1.381605   -0.054740   -0.510650
     10          6           0        0.542528   -1.215705   -0.838540
     11          6           0        2.804945    0.052955   -0.984345
     12          8           0        3.208531    1.088965   -1.475844
     13          6           0        3.745735   -1.142632   -0.796072
     14          6           0        4.974442   -0.713237    0.032268
     15          6           0        4.164458   -1.685477   -2.173025
     16          8           0        0.995905   -2.293206   -1.194964
     17          6           0       -0.987060    2.253638    1.010131
     18          6           0        0.339795    3.034731    1.126679
     19          8           0        1.304812    2.153549    0.405631
     20          6           0       -1.810644    2.413891   -0.278837
     21          8           0       -0.245203    0.189434    2.173962
     22          6           0       -1.800875   -2.258163   -0.829304
     23          6           0       -2.342736   -2.271136    0.599875
     24          8           0       -2.287478   -0.875092    1.034262
     25          6           0       -1.674621   -3.140894    1.651453
     26          6           0       -2.391136   -3.154841    2.980420
     27          6           0       -0.567617   -3.853004    1.438254
     28          6           0        0.820990    3.158184    2.571103
     29          6           0        0.386416    4.378380    0.412158
     30          1           0       -1.611669    2.409222    1.892368
     31          1           0       -3.380916    1.098180    0.364834
     32          6           0       -4.579330    1.415362   -1.984931
     33          1           0       -2.956250    0.023313   -3.666869
     34          1           0       -0.925195   -1.189937   -3.129536
     35          1           0       -0.394442    0.385379   -2.603564
     36          1           0        3.210908   -1.930284   -0.261670
     37          1           0        5.671071   -1.559515    0.054813
     38          1           0        5.487165    0.098490   -0.493318
     39          1           0        4.664806   -0.909868   -2.758381
     40          1           0        4.856226   -2.524300   -2.053121
     41          1           0        3.300695   -2.044318   -2.736620
     42          1           0       -1.160099    2.534454   -1.150368
     43          1           0       -2.476827    3.278921   -0.256367
     44          1           0       -0.951402   -0.463994    2.320382
     45          1           0       -1.189208   -3.121929   -1.078824
     46          1           0       -2.643296   -2.239169   -1.523037
     47          1           0       -3.409296   -2.523458    0.595850
     48          1           0       -3.399471   -3.573098    2.875132
     49          1           0       -2.519493   -2.144981    3.383071
     50          1           0       -1.854447   -3.750317    3.720971
     51          1           0       -0.139271   -4.460081    2.230517
     52          1           0       -0.037678   -3.857156    0.494033
     53          1           0        1.841833    3.546309    2.594398
     54          1           0        0.796638    2.194530    3.079337
     55          1           0        0.180564    3.854405    3.120298
     56          1           0        0.151617    4.286317   -0.648371
     57          1           0       -0.329765    5.068347    0.866986
     58          1           0        1.382281    4.817895    0.498962
     59          1           0       -5.311522    0.992124   -1.287277
     60          1           0       -4.593859    2.500567   -1.829915
     61          1           0       -4.928654    1.219677   -3.001062
     62          6           0        4.650634   -0.283726    1.465727
     63          1           0        4.016884    0.607490    1.489687
     64          1           0        5.564732   -0.046533    2.017904
     65          1           0        4.130070   -1.075130    2.014373
 ---------------------------------------------------------------------

 The electronic state is 1-A.
 Alpha  occ. eigenvalues --  -19.17802 -19.14759 -19.13294 -19.10967 -19.10290
 Alpha  occ. eigenvalues --  -10.26563 -10.26550 -10.25822 -10.25660 -10.25404
 Alpha  occ. eigenvalues --  -10.25364 -10.23947 -10.20930 -10.19636 -10.19551
 Alpha  occ. eigenvalues --  -10.19121 -10.18921 -10.18850 -10.18777 -10.18174
 Alpha  occ. eigenvalues --  -10.17749 -10.17694 -10.17651 -10.17604 -10.17167
 Alpha  occ. eigenvalues --  -10.16930 -10.16571 -10.16505 -10.15618 -10.14695
 Alpha  occ. eigenvalues --  -10.14660  -1.10451  -1.06911  -1.04634  -1.03660
 Alpha  occ. eigenvalues --   -1.03338  -0.88035  -0.84751  -0.83029  -0.82252
 Alpha  occ. eigenvalues --   -0.80887  -0.79841  -0.77783  -0.75039  -0.74017
 Alpha  occ. eigenvalues --   -0.73008  -0.72093  -0.70822  -0.69683  -0.69003
 Alpha  occ. eigenvalues --   -0.65991  -0.64854  -0.64134  -0.62450  -0.61698
 Alpha  occ. eigenvalues --   -0.60119  -0.59665  -0.57683  -0.55285  -0.54575
 Alpha  occ. eigenvalues --   -0.53640  -0.53058  -0.51789  -0.50955  -0.50155
 Alpha  occ. eigenvalues --   -0.49029  -0.48483  -0.48248  -0.47502  -0.46931
 Alpha  occ. eigenvalues --   -0.45985  -0.45414  -0.45130  -0.44185  -0.43376
 Alpha  occ. eigenvalues --   -0.43299  -0.43223  -0.42827  -0.42616  -0.42012
 Alpha  occ. eigenvalues --   -0.41685  -0.41457  -0.41079  -0.40828  -0.40761
 Alpha  occ. eigenvalues --   -0.40644  -0.39947  -0.39797  -0.39294  -0.39008
 Alpha  occ. eigenvalues --   -0.38437  -0.38245  -0.38094  -0.37598  -0.37125
 Alpha  occ. eigenvalues --   -0.36508  -0.36229  -0.35646  -0.35608  -0.35207
 Alpha  occ. eigenvalues --   -0.34722  -0.34381  -0.33969  -0.33448  -0.33391
 Alpha  occ. eigenvalues --   -0.32458  -0.32145  -0.31522  -0.28728  -0.28543
 Alpha  occ. eigenvalues --   -0.26581  -0.25869  -0.25422  -0.24580  -0.23762
 Alpha virt. eigenvalues --   -0.06035  -0.02631  -0.01549  -0.01062  -0.00550
 Alpha virt. eigenvalues --    0.00262   0.00399   0.00728   0.01842   0.01878
 Alpha virt. eigenvalues --    0.02013   0.02191   0.02837   0.03336   0.03673

 Mulliken atomic charges:
              1
     1  C   -0.617650
     2  C    1.095501
     3  C   -0.132787
     4  C   -0.286690
     5  C    1.038394
     6  C   -1.143343
     7  C   -1.363986
     8  C    0.305780
     9  C    0.913643
    10  C   -0.943297
    11  C   -0.200287
    12  O   -0.169994
    13  C    0.381911
    14  C   -0.338488
    15  C   -1.076123
    16  O   -0.197097
    17  C   -0.258953
    18  C    0.639783
    19  O    0.199633
    20  C   -1.244581
    21  O   -0.009237
    22  C   -0.406954
    23  C   -0.028817
    24  O   -0.026355
    25  C    0.917775
    26  C   -1.070173
    27  C   -1.046142
    28  C   -0.856437
    29  C   -0.592264
    30  H    0.239792
    31  H    0.260405
    32  C   -1.157227
    33  H    0.208042
    34  H    0.259577
    35  H    0.263582
    36  H    0.240351
    37  H    0.218472
    38  H    0.263146
    39  H    0.267947
    40  H    0.232266
    41  H    0.273443
    42  H    0.289788
    43  H    0.259922
    44  H    0.253455
    45  H    0.270128
    46  H    0.255754
    47  H    0.214838
    48  H    0.262093
    49  H    0.252872
    50  H    0.251432
    51  H    0.214886
    52  H    0.246438
    53  H    0.265469
    54  H    0.312832
    55  H    0.250876
    56  H    0.270506
    57  H    0.261537
    58  H    0.273364
    59  H    0.261745
    60  H    0.245551
    61  H    0.251760
    62  C   -0.972605
    63  H    0.263892
    64  H    0.246284
    65  H    0.244624
 Sum of Mulliken atomic charges =   0.00000

 Dipole moment (field-independent basis, Debye):
    X=             -5.3633    Y=              1.5478    Z=              1.4099  Tot=              5.7575
 Quadrupole moment (field-independent basis, Debye-Ang):
   XX=           -189.0462   YY=           -181.3489   ZZ=           -188.5467
   XY=             -5.6356   XZ=              7.2978   YZ=              2.0380

 Normal termination of Gaussian 09 at Tue Apr 13 18:13:50 2021.
