 Gaussian 09, Revision B.01,
 Gaussian 09:  EM64L-G09RevB.01 12-Aug-2010

 ----------------------------------------
 # opt b3lyp/6-311+g(d) geom=connectivity
 ----------------------------------------

 -------------------
 Title Card Required
 -------------------
 Symbolic Z-matrix:
 Charge =  0 Multiplicity = 1

 SCF Done:  E(RB3LYP) =  -1387.64962300     A.U. after   17 cycles
 SCF Done:  E(RB3LYP) =  -1387.65017089     A.U. after   14 cycles
 SCF Done:  E(RB3LYP) =  -1387.65012990     A.U. after   14 cycles
 SCF Done:  E(RB3LYP) =  -1387.65005120     A.U. after   13 cycles
 SCF Done:  E(RB3LYP) =  -1387.65027368     A.U. after   14 cycles
 SCF Done:  E(RB3LYP) =  -1387.65027085     A.U. after   13 cycles
 SCF Done:  E(RB3LYP) =  -1387.65028756     A.U. after   11 cycles
 SCF Done:  E(RB3LYP) =  -1387.65028889     A.U. after   11 cycles
 SCF Done:  E(RB3LYP) =  -1387.65028849     A.U. after   12 cycles
 SCF Done:  E(RB3LYP) =  -1387.65028871     A.U. after   10 cycles
 Optimization completed.
    -- Stationary point found.

                         Standard orientation:
 ---------------------------------------------------------------------
 Center     Atomic      Atomic             Coordinates (Angstroms)
 Number     Number       Type             X           Y           Z
 ---------------------------------------------------------------------
      1          6           0        1.480104    0.418204    3.197036
      2          6           0        1.284979    1.610020    2.629421
      3          6           0        1.408399    1.799642    1.133860
      4          6           0        1.487006    0.495992    0.280554
      5          6           0        1.323967   -0.874773    0.991102
      6          6           0        1.852249   -0.827235    2.445912
      7          6           0        0.447444    0.716427   -0.853311
      8          6           0       -0.940482    0.243023   -0.483112
      9          6           0       -1.213864   -0.793298    0.333962
     10          6           0       -0.107294   -1.477109    1.016009
     11          6           0       -2.635393   -1.200558    0.666856
     12          8           0       -3.043452   -1.091298    1.801200
     13          6           0       -3.476161   -1.783869   -0.466978
     14          6           0       -4.982924   -1.708482   -0.186477
     15          6           0       -3.012534   -3.238865   -0.699811
     16          8           0       -0.280446   -2.525657    1.613663
     17          6           0        0.167904    2.229729   -0.959159
     18          6           0       -1.248833    2.282090   -1.576554
     19          8           0       -1.871725    1.038135   -1.031668
     20          6           0        0.279517    2.668276    0.512832
     21          8           0        0.805055    0.073864   -2.063863
     22          6           0        2.233091   -1.791144    0.134432
     23          6           0        3.389629   -0.859398   -0.245754
     24          8           0        2.793026    0.447705   -0.349947
     25          6           0        4.146606   -1.232057   -1.500058
     26          6           0        4.701873   -2.633218   -1.512265
     27          6           0        4.349640   -0.368911   -2.496980
     28          6           0       -1.244777    2.179066   -3.101003
     29          6           0       -2.130888    3.437432   -1.119106
     30          1           0        0.902819    2.733640   -1.591237
     31          1           0        2.359775    2.311223    0.939906
     32          6           0        0.999751    2.844111    3.446458
     33          1           0        1.411256    0.330612    4.279201
     34          1           0        2.946514   -0.920730    2.439957
     35          1           0        1.484267   -1.716269    2.961634
     36          1           0       -3.243870   -1.210252   -1.372709
     37          1           0       -5.498943   -2.304118   -0.948776
     38          1           0       -5.188566   -2.190649    0.774089
     39          1           0       -1.940657   -3.302075   -0.900059
     40          1           0       -3.540499   -3.664921   -1.557106
     41          1           0       -3.223769   -3.859001    0.174976
     42          1           0        0.477928    3.736244    0.618660
     43          1           0       -0.658018    2.466130    1.036796
     44          1           0        1.770072    0.143789   -2.144177
     45          1           0        1.709522   -2.131629   -0.761838
     46          1           0        2.555623   -2.668997    0.695697
     47          1           0        4.118407   -0.825484    0.577612
     48          1           0        5.321745   -2.821198   -0.627959
     49          1           0        3.905844   -3.384838   -1.502248
     50          1           0        5.318197   -2.806920   -2.395694
     51          1           0        4.910878   -0.654567   -3.380909
     52          1           0        3.991193    0.652860   -2.452900
     53          1           0       -2.265466    2.050840   -3.469355
     54          1           0       -0.843115    3.098770   -3.536372
     55          1           0       -0.638926    1.340976   -3.441456
     56          1           0       -1.696352    4.387885   -1.441123
     57          1           0       -3.123798    3.353926   -1.566183
     58          1           0       -2.251298    3.463856   -0.036457
     59          1           0        1.008737    2.620294    4.514915
     60          1           0        1.748712    3.623976    3.260765
     61          1           0        0.025432    3.283327    3.208488
     62          6           0       -5.552423   -0.287613   -0.182312
     63          1           0       -6.632077   -0.301194   -0.006912
     64          1           0       -5.099858    0.322618    0.602271
     65          1           0       -5.380876    0.214995   -1.139910
 ---------------------------------------------------------------------

 The electronic state is 1-A.
 Alpha  occ. eigenvalues --  -19.17701 -19.14635 -19.13968 -19.10979 -19.10554
 Alpha  occ. eigenvalues --  -10.26354 -10.26337 -10.26042 -10.25884 -10.25398
 Alpha  occ. eigenvalues --  -10.25288 -10.24328 -10.20686 -10.19877 -10.19844
 Alpha  occ. eigenvalues --  -10.19411 -10.18764 -10.18652 -10.18422 -10.18263
 Alpha  occ. eigenvalues --  -10.17973 -10.17862 -10.17746 -10.17476 -10.17119
 Alpha  occ. eigenvalues --  -10.17085 -10.17058 -10.16880 -10.15776 -10.15695
 Alpha  occ. eigenvalues --  -10.14670  -1.10156  -1.07037  -1.04813  -1.03877
 Alpha  occ. eigenvalues --   -1.03814  -0.87731  -0.84748  -0.83425  -0.82424
 Alpha  occ. eigenvalues --   -0.81165  -0.80444  -0.77747  -0.75143  -0.74143
 Alpha  occ. eigenvalues --   -0.72969  -0.72263  -0.70870  -0.70351  -0.68836
 Alpha  occ. eigenvalues --   -0.65835  -0.65106  -0.63906  -0.62756  -0.61558
 Alpha  occ. eigenvalues --   -0.60366  -0.60025  -0.57903  -0.56107  -0.54858
 Alpha  occ. eigenvalues --   -0.53761  -0.53332  -0.51566  -0.51289  -0.50215
 Alpha  occ. eigenvalues --   -0.49500  -0.48728  -0.47783  -0.47415  -0.46795
 Alpha  occ. eigenvalues --   -0.45987  -0.45514  -0.44753  -0.44492  -0.44199
 Alpha  occ. eigenvalues --   -0.44138  -0.43041  -0.42843  -0.42614  -0.42234
 Alpha  occ. eigenvalues --   -0.42028  -0.41684  -0.41336  -0.41160  -0.40916
 Alpha  occ. eigenvalues --   -0.40129  -0.39905  -0.39579  -0.39249  -0.38655
 Alpha  occ. eigenvalues --   -0.38556  -0.38418  -0.38255  -0.37944  -0.37487
 Alpha  occ. eigenvalues --   -0.37050  -0.36756  -0.36177  -0.35805  -0.35475
 Alpha  occ. eigenvalues --   -0.34958  -0.34754  -0.33879  -0.33539  -0.32975
 Alpha  occ. eigenvalues --   -0.32816  -0.32249  -0.32011  -0.29535  -0.27809
 Alpha  occ. eigenvalues --   -0.26888  -0.26001  -0.25302  -0.24379  -0.24212
 Alpha virt. eigenvalues --   -0.05764  -0.02811  -0.01516  -0.01176  -0.00144
 Alpha virt. eigenvalues --    0.00142   0.00651   0.01028   0.01549   0.01747
 Alpha virt. eigenvalues --    0.02027   0.02420   0.02982   0.03266   0.03521

 Mulliken atomic charges:
              1
     1  C   -0.376216
     2  C    0.732656
     3  C   -0.298066
     4  C   -0.441907
     5  C    1.377754
     6  C   -0.764364
     7  C   -1.272548
     8  C   -0.066359
     9  C    0.229677
    10  C   -0.473858
    11  C    0.236548
    12  O   -0.173027
    13  C   -0.002985
    14  C   -0.286289
    15  C   -1.036287
    16  O   -0.151112
    17  C    0.071157
    18  C    0.505043
    19  O    0.163939
    20  C   -1.204203
    21  O    0.015248
    22  C   -0.929977
    23  C   -0.351011
    24  O   -0.043742
    25  C    1.075576
    26  C   -1.144596
    27  C   -0.773474
    28  C   -0.708744
    29  C   -0.685007
    30  H    0.229242
    31  H    0.275313
    32  C   -1.082855
    33  H    0.204746
    34  H    0.244253
    35  H    0.278866
    36  H    0.239835
    37  H    0.220249
    38  H    0.260301
    39  H    0.279403
    40  H    0.255763
    41  H    0.280535
    42  H    0.268257
    43  H    0.279429
    44  H    0.275705
    45  H    0.296454
    46  H    0.283790
    47  H    0.247764
    48  H    0.260872
    49  H    0.267997
    50  H    0.259407
    51  H    0.223389
    52  H    0.243229
    53  H    0.263234
    54  H    0.249236
    55  H    0.309037
    56  H    0.263684
    57  H    0.272400
    58  H    0.263434
    59  H    0.257737
    60  H    0.254421
    61  H    0.255888
    62  C   -0.938750
    63  H    0.242371
    64  H    0.262196
    65  H    0.229342
 Sum of Mulliken atomic charges =   0.00000

 Dipole moment (field-independent basis, Debye):
    X=              3.4890    Y=              3.6935    Z=             -3.0356  Tot=              5.9186
 Quadrupole moment (field-independent basis, Debye-Ang):
   XX=           -187.1485   YY=           -180.8907   ZZ=           -191.8347
   XY=             -9.1904   XZ=              9.1881   YZ=              4.9875

 Normal termination of Gaussian 09 at Tue Apr 13 22:31:10 2021.
