 Gaussian 09, Revision B.01,
 Gaussian 09:  EM64L-G09RevB.01 12-Aug-2010

 ----------------------------------------
 # opt b3lyp/6-311+g(d) geom=connectivity
 ----------------------------------------

 -------------------
 Title Card Required
 -------------------
 Symbolic Z-matrix:
 Charge =  0 Multiplicity = 1

 SCF Done:  E(RB3LYP) =  -1387.65003403     A.U. after   17 cycles
 SCF Done:  E(RB3LYP) =  -1387.65049336     A.U. after   15 cycles
 SCF Done:  E(RB3LYP) =  -1387.65019238     A.U. after   13 cycles
 SCF Done:  E(RB3LYP) =  -1387.65059756     A.U. after   13 cycles
 SCF Done:  E(RB3LYP) =  -1387.65054396     A.U. after   13 cycles
 SCF Done:  E(RB3LYP) =  -1387.65064413     A.U. after   13 cycles
 SCF Done:  E(RB3LYP) =  -1387.65065162     A.U. after   11 cycles
 SCF Done:  E(RB3LYP) =  -1387.65065345     A.U. after   11 cycles
 SCF Done:  E(RB3LYP) =  -1387.65065384     A.U. after   10 cycles
 SCF Done:  E(RB3LYP) =  -1387.65065394     A.U. after    9 cycles
 Optimization completed.
    -- Stationary point found.

                         Standard orientation:
 ---------------------------------------------------------------------
 Center     Atomic      Atomic             Coordinates (Angstroms)
 Number     Number       Type             X           Y           Z
 ---------------------------------------------------------------------
      1          6           0        1.913243    0.626814    2.790429
      2          6           0        2.267766    1.661335    2.024280
      3          6           0        1.728657    1.777948    0.619117
      4          6           0        1.373644    0.435098   -0.099336
      5          6           0        1.184288   -0.822803    0.816689
      6          6           0        0.981066   -0.453529    2.315919
      7          6           0        0.139493    0.791255   -0.989751
      8          6           0       -1.175619    0.291946   -0.416809
      9          6           0       -1.319756   -0.906624    0.185652
     10          6           0       -0.071740   -1.663316    0.453080
     11          6           0       -2.622473   -1.470241    0.684526
     12          8           0       -2.685933   -1.929650    1.806854
     13          6           0       -3.804422   -1.516412   -0.282918
     14          6           0       -5.156853   -1.556873    0.441336
     15          6           0       -3.606666   -2.752496   -1.188531
     16          8           0       -0.042444   -2.875262    0.508846
     17          6           0       -0.083407    2.315541   -0.912615
     18          6           0       -1.601234    2.469221   -1.149480
     19          8           0       -2.148245    1.195803   -0.600709
     20          6           0        0.458555    2.654404    0.487312
     21          8           0        0.255752    0.283601   -2.306837
     22          6           0        2.479753   -1.641966    0.592672
     23          6           0        3.361675   -0.771444   -0.318503
     24          8           0        2.432458    0.081382   -1.002577
     25          6           0        4.244496   -1.525121   -1.281869
     26          6           0        5.248526   -2.435279   -0.621104
     27          6           0        4.162212   -1.384356   -2.604382
     28          6           0       -1.956964    2.525190   -2.634576
     29          6           0       -2.284363    3.591723   -0.379569
     30          1           0        0.490525    2.828012   -1.687603
     31          1           0        2.497458    2.233605   -0.016733
     32          6           0        3.174411    2.764553    2.499294
     33          1           0        2.281284    0.559287    3.811940
     34          1           0        1.107149   -1.363872    2.907103
     35          1           0       -0.058639   -0.146875    2.485415
     36          1           0       -3.757962   -0.625556   -0.917276
     37          1           0       -5.163314   -2.405213    1.132165
     38          1           0       -5.934319   -1.758201   -0.305186
     39          1           0       -2.640557   -2.735500   -1.698509
     40          1           0       -4.389362   -2.785087   -1.951328
     41          1           0       -3.660639   -3.674988   -0.604606
     42          1           0       -0.259516    2.378020    1.265166
     43          1           0        0.674373    3.717254    0.614511
     44          1           0        1.164648   -0.049623   -2.394419
     45          1           0        2.982602   -1.875009    1.532119
     46          1           0        2.229413   -2.588132    0.111133
     47          1           0        4.008644   -0.133237    0.302351
     48          1           0        4.757858   -3.236527   -0.058395
     49          1           0        5.874466   -1.887270    0.092954
     50          1           0        5.906783   -2.898470   -1.357843
     51          1           0        4.817938   -1.938394   -3.268596
     52          1           0        3.451244   -0.713215   -3.069968
     53          1           0       -3.039430    2.452860   -2.764475
     54          1           0       -1.627630    3.476087   -3.063160
     55          1           0       -1.479482    1.716275   -3.186921
     56          1           0       -1.902297    4.560737   -0.712210
     57          1           0       -2.124136    3.509343    0.695734
     58          1           0       -3.360957    3.574859   -0.563007
     59          1           0        3.495780    2.606611    3.530983
     60          1           0        4.070902    2.839761    1.872419
     61          1           0        2.679353    3.741466    2.450223
     62          6           0       -5.501230   -0.272045    1.199321
     63          1           0       -5.513475    0.595818    0.531742
     64          1           0       -4.780369   -0.072432    1.995682
     65          1           0       -6.489395   -0.344520    1.662872
 ---------------------------------------------------------------------

 The electronic state is 1-A.
 Alpha  occ. eigenvalues --  -19.17836 -19.15117 -19.13545 -19.11051 -19.10693
 Alpha  occ. eigenvalues --  -10.26306 -10.26222 -10.26132 -10.25821 -10.25729
 Alpha  occ. eigenvalues --  -10.25728 -10.24005 -10.20796 -10.19912 -10.19768
 Alpha  occ. eigenvalues --  -10.19359 -10.19150 -10.18985 -10.18518 -10.18187
 Alpha  occ. eigenvalues --  -10.18079 -10.17865 -10.17726 -10.17675 -10.17506
 Alpha  occ. eigenvalues --  -10.17262 -10.17230 -10.16514 -10.15645 -10.15620
 Alpha  occ. eigenvalues --  -10.14742  -1.10243  -1.07731  -1.04915  -1.03815
 Alpha  occ. eigenvalues --   -1.03784  -0.88110  -0.84907  -0.83225  -0.82400
 Alpha  occ. eigenvalues --   -0.81083  -0.80333  -0.77872  -0.74897  -0.74154
 Alpha  occ. eigenvalues --   -0.73278  -0.72424  -0.71135  -0.69899  -0.69327
 Alpha  occ. eigenvalues --   -0.65708  -0.64995  -0.64347  -0.62748  -0.61887
 Alpha  occ. eigenvalues --   -0.60107  -0.59917  -0.57929  -0.56205  -0.54394
 Alpha  occ. eigenvalues --   -0.54256  -0.52959  -0.51994  -0.50969  -0.50458
 Alpha  occ. eigenvalues --   -0.49496  -0.48686  -0.48069  -0.47577  -0.47069
 Alpha  occ. eigenvalues --   -0.46036  -0.45378  -0.45163  -0.44446  -0.44117
 Alpha  occ. eigenvalues --   -0.43505  -0.43320  -0.43103  -0.42784  -0.42454
 Alpha  occ. eigenvalues --   -0.41901  -0.41796  -0.41435  -0.41045  -0.40965
 Alpha  occ. eigenvalues --   -0.40438  -0.40272  -0.39998  -0.39589  -0.39267
 Alpha  occ. eigenvalues --   -0.38690  -0.38590  -0.38309  -0.37339  -0.36936
 Alpha  occ. eigenvalues --   -0.36808  -0.36537  -0.36218  -0.35764  -0.35587
 Alpha  occ. eigenvalues --   -0.34971  -0.34675  -0.34130  -0.33533  -0.33374
 Alpha  occ. eigenvalues --   -0.32661  -0.32448  -0.31926  -0.29537  -0.28858
 Alpha  occ. eigenvalues --   -0.26155  -0.25909  -0.25496  -0.24663  -0.24100
 Alpha virt. eigenvalues --   -0.05541  -0.03185  -0.01588  -0.00821  -0.00738
 Alpha virt. eigenvalues --    0.00194   0.00343   0.00548   0.01449   0.01784
 Alpha virt. eigenvalues --    0.02015   0.02216   0.02657   0.03363   0.03567

 Mulliken atomic charges:
              1
     1  C   -0.690120
     2  C    0.994581
     3  C    0.032891
     4  C    0.357034
     5  C    1.312803
     6  C   -1.253066
     7  C   -0.878807
     8  C    0.099431
     9  C    0.567189
    10  C   -0.649849
    11  C   -0.672048
    12  O   -0.174670
    13  C    0.324454
    14  C   -0.248348
    15  C   -1.102850
    16  O   -0.158185
    17  C   -0.427875
    18  C    0.855636
    19  O    0.198944
    20  C   -1.679432
    21  O   -0.059478
    22  C   -0.697617
    23  C   -0.374278
    24  O    0.014822
    25  C    0.951596
    26  C   -1.151524
    27  C   -0.780375
    28  C   -0.690664
    29  C   -0.625564
    30  H    0.236729
    31  H    0.261510
    32  C   -1.202691
    33  H    0.207871
    34  H    0.264745
    35  H    0.276507
    36  H    0.234364
    37  H    0.258347
    38  H    0.217702
    39  H    0.281215
    40  H    0.255653
    41  H    0.275676
    42  H    0.294346
    43  H    0.263912
    44  H    0.281459
    45  H    0.259403
    46  H    0.296243
    47  H    0.256006
    48  H    0.265893
    49  H    0.253087
    50  H    0.259956
    51  H    0.220807
    52  H    0.229088
    53  H    0.263374
    54  H    0.248548
    55  H    0.314248
    56  H    0.264023
    57  H    0.265717
    58  H    0.272129
    59  H    0.250733
    60  H    0.258827
    61  H    0.247265
    62  C   -0.956263
    63  H    0.227968
    64  H    0.257178
    65  H    0.243794
 Sum of Mulliken atomic charges =   0.00000

 Dipole moment (field-independent basis, Debye):
    X=              3.0096    Y=              5.7950    Z=             -0.8077  Tot=              6.5796
 Quadrupole moment (field-independent basis, Debye-Ang):
   XX=           -180.1852   YY=           -188.6191   ZZ=           -191.6242
   XY=             -8.6600   XZ=             11.2754   YZ=              4.1922

 Normal termination of Gaussian 09 at Tue Apr 13 16:41:08 2021.
