 Gaussian 09, Revision B.01,
 Gaussian 09:  EM64L-G09RevB.01 12-Aug-2010

 ----------------------------------------
 # opt b3lyp/6-311+g(d) geom=connectivity
 ----------------------------------------

 -------------------
 Title Card Required
 -------------------
 Symbolic Z-matrix:
 Charge =  0 Multiplicity = 1

 SCF Done:  E(RB3LYP) =  -1387.64669622     A.U. after   18 cycles
 SCF Done:  E(RB3LYP) =  -1387.64729642     A.U. after   14 cycles
 SCF Done:  E(RB3LYP) =  -1387.64725385     A.U. after   14 cycles
 SCF Done:  E(RB3LYP) =  -1387.64755012     A.U. after   14 cycles
 SCF Done:  E(RB3LYP) =  -1387.64748995     A.U. after   14 cycles
 SCF Done:  E(RB3LYP) =  -1387.64794057     A.U. after   14 cycles
 SCF Done:  E(RB3LYP) =  -1387.64811824     A.U. after   14 cycles
 SCF Done:  E(RB3LYP) =  -1387.64743813     A.U. after   16 cycles
 SCF Done:  E(RB3LYP) =  -1387.64787822     A.U. after   16 cycles
 SCF Done:  E(RB3LYP) =  -1387.64818476     A.U. after   15 cycles
 SCF Done:  E(RB3LYP) =  -1387.64827712     A.U. after   14 cycles
 SCF Done:  E(RB3LYP) =  -1387.64836587     A.U. after   14 cycles
 SCF Done:  E(RB3LYP) =  -1387.64839235     A.U. after   13 cycles
 SCF Done:  E(RB3LYP) =  -1387.64841847     A.U. after   14 cycles
 SCF Done:  E(RB3LYP) =  -1387.64845529     A.U. after   14 cycles
 SCF Done:  E(RB3LYP) =  -1387.64845943     A.U. after   12 cycles
 SCF Done:  E(RB3LYP) =  -1387.64845978     A.U. after   11 cycles
 SCF Done:  E(RB3LYP) =  -1387.64845968     A.U. after    9 cycles
 SCF Done:  E(RB3LYP) =  -1387.64845967     A.U. after    9 cycles
 Optimization completed.
    -- Stationary point found.

                         Standard orientation:
 ---------------------------------------------------------------------
 Center     Atomic      Atomic             Coordinates (Angstroms)
 Number     Number       Type             X           Y           Z
 ---------------------------------------------------------------------
      1          6           0        1.741338    0.629805    2.859597
      2          6           0        2.190147    1.640530    2.110764
      3          6           0        1.760831    1.755141    0.666759
      4          6           0        1.435429    0.411446   -0.065237
      5          6           0        1.179908   -0.829527    0.853947
      6          6           0        0.827576   -0.433993    2.315618
      7          6           0        0.255849    0.771117   -1.029667
      8          6           0       -1.093110    0.274205   -0.535970
      9          6           0       -1.269963   -0.932390    0.046974
     10          6           0       -0.017832   -1.685023    0.349721
     11          6           0       -2.575322   -1.525473    0.478029
     12          8           0       -2.614903   -2.223937    1.474229
     13          6           0       -3.835120   -1.267648   -0.353821
     14          6           0       -4.806516   -0.295014    0.367081
     15          6           0       -4.492984   -2.610505   -0.708606
     16          8           0        0.049026   -2.893247    0.297280
     17          6           0        0.037632    2.296434   -0.970429
     18          6           0       -1.464954    2.456839   -1.285000
     19          8           0       -2.046768    1.186779   -0.761673
     20          6           0        0.510412    2.644421    0.451732
     21          8           0        0.450859    0.261159   -2.336107
     22          6           0        2.505083   -1.623945    0.782530
     23          6           0        3.427973   -0.830880   -0.160107
     24          8           0        2.534140    0.029390   -0.903100
     25          6           0        4.257966   -1.660400   -1.110572
     26          6           0        3.539053   -2.406475   -2.204075
     27          6           0        5.579315   -1.732794   -0.938144
     28          6           0       -1.744072    2.509222   -2.786546
     29          6           0       -2.181940    3.584929   -0.555127
     30          1           0        0.652050    2.799975   -1.719730
     31          1           0        2.578151    2.198243    0.085322
     32          6           0        3.088501    2.724143    2.642829
     33          1           0        2.023334    0.565716    3.908197
     34          1           0        0.870112   -1.335548    2.932197
     35          1           0       -0.214584   -0.097401    2.370187
     36          1           0       -3.534872   -0.775830   -1.282662
     37          1           0       -4.274155    0.640075    0.568520
     38          1           0       -5.591849   -0.038926   -0.355102
     39          1           0       -3.830507   -3.221542   -1.327661
     40          1           0       -5.417095   -2.443403   -1.270572
     41          1           0       -4.730272   -3.186406    0.186291
     42          1           0       -0.251151    2.386241    1.193652
     43          1           0        0.731660    3.706226    0.578793
     44          1           0        1.371696   -0.048620   -2.373566
     45          1           0        2.969475   -1.731549    1.763447
     46          1           0        2.300279   -2.627469    0.409695
     47          1           0        4.096646   -0.190612    0.425817
     48          1           0        3.148491   -1.716222   -2.958412
     49          1           0        2.684415   -2.972960   -1.823320
     50          1           0        4.209917   -3.102675   -2.710541
     51          1           0        6.203616   -2.364664   -1.562003
     52          1           0        6.086458   -1.168641   -0.160980
     53          1           0       -2.818631    2.440676   -2.972049
     54          1           0       -1.388994    3.457442   -3.200292
     55          1           0       -1.241967    1.697011   -3.311769
     56          1           0       -1.779285    4.550856   -0.871943
     57          1           0       -2.076477    3.507722    0.527379
     58          1           0       -3.247848    3.572117   -0.793071
     59          1           0        3.322171    2.572444    3.698780
     60          1           0        4.033895    2.763947    2.088849
     61          1           0        2.628440    3.714177    2.541864
     62          6           0       -5.455393   -0.804412    1.657002
     63          1           0       -6.096916   -0.028152    2.085696
     64          1           0       -4.711584   -1.079498    2.406791
     65          1           0       -6.082292   -1.682424    1.481468
 ---------------------------------------------------------------------

 The electronic state is 1-A.
 Alpha  occ. eigenvalues --  -19.18054 -19.15027 -19.13580 -19.11245 -19.10224
 Alpha  occ. eigenvalues --  -10.26386 -10.26365 -10.26284 -10.25796 -10.25778
 Alpha  occ. eigenvalues --  -10.25470 -10.23812 -10.20686 -10.19983 -10.19809
 Alpha  occ. eigenvalues --  -10.19435 -10.19215 -10.19026 -10.18569 -10.18294
 Alpha  occ. eigenvalues --  -10.18254 -10.17893 -10.17738 -10.17404 -10.17346
 Alpha  occ. eigenvalues --  -10.17276 -10.17031 -10.16973 -10.16382 -10.15070
 Alpha  occ. eigenvalues --  -10.14511  -1.10424  -1.07542  -1.05006  -1.03744
 Alpha  occ. eigenvalues --   -1.03490  -0.88147  -0.85007  -0.83206  -0.82380
 Alpha  occ. eigenvalues --   -0.81101  -0.80144  -0.77892  -0.74835  -0.74151
 Alpha  occ. eigenvalues --   -0.73178  -0.72110  -0.71258  -0.70075  -0.69220
 Alpha  occ. eigenvalues --   -0.66179  -0.65191  -0.64403  -0.62800  -0.61753
 Alpha  occ. eigenvalues --   -0.60042  -0.59511  -0.57922  -0.56213  -0.54346
 Alpha  occ. eigenvalues --   -0.54244  -0.52877  -0.52109  -0.50821  -0.50407
 Alpha  occ. eigenvalues --   -0.49124  -0.48416  -0.48086  -0.47631  -0.47099
 Alpha  occ. eigenvalues --   -0.46136  -0.45426  -0.45380  -0.45117  -0.44270
 Alpha  occ. eigenvalues --   -0.44080  -0.43435  -0.43241  -0.42506  -0.42222
 Alpha  occ. eigenvalues --   -0.42092  -0.41749  -0.41437  -0.41015  -0.40696
 Alpha  occ. eigenvalues --   -0.40270  -0.39986  -0.39661  -0.38994  -0.38805
 Alpha  occ. eigenvalues --   -0.38593  -0.38376  -0.37809  -0.37609  -0.37387
 Alpha  occ. eigenvalues --   -0.36920  -0.36868  -0.36366  -0.35958  -0.35586
 Alpha  occ. eigenvalues --   -0.34826  -0.34667  -0.34156  -0.34109  -0.33165
 Alpha  occ. eigenvalues --   -0.32508  -0.32267  -0.31872  -0.29543  -0.28884
 Alpha  occ. eigenvalues --   -0.26468  -0.25962  -0.25489  -0.24708  -0.23800
 Alpha virt. eigenvalues --   -0.05813  -0.03289  -0.01575  -0.01182  -0.00641
 Alpha virt. eigenvalues --   -0.00182   0.00261   0.00501   0.01537   0.01738
 Alpha virt. eigenvalues --    0.01844   0.02226   0.02879   0.03231   0.03282

 Mulliken atomic charges:
              1
     1  C   -0.823049
     2  C    1.004729
     3  C   -0.075194
     4  C    0.422975
     5  C    1.129056
     6  C   -1.284994
     7  C   -0.981482
     8  C    0.247005
     9  C    0.328056
    10  C   -0.596498
    11  C   -0.300451
    12  O   -0.188794
    13  C    0.407296
    14  C   -0.216936
    15  C   -1.078214
    16  O   -0.142328
    17  C   -0.537918
    18  C    0.797448
    19  O    0.211459
    20  C   -1.378696
    21  O   -0.053012
    22  C   -0.544602
    23  C   -0.214572
    24  O    0.040622
    25  C    0.744601
    26  C   -1.101161
    27  C   -1.000275
    28  C   -0.705008
    29  C   -0.643268
    30  H    0.242547
    31  H    0.261801
    32  C   -1.176733
    33  H    0.209057
    34  H    0.273307
    35  H    0.279350
    36  H    0.223741
    37  H    0.230041
    38  H    0.217091
    39  H    0.255317
    40  H    0.239931
    41  H    0.281678
    42  H    0.287471
    43  H    0.262716
    44  H    0.278917
    45  H    0.258966
    46  H    0.310292
    47  H    0.238791
    48  H    0.266245
    49  H    0.289894
    50  H    0.259965
    51  H    0.228784
    52  H    0.214329
    53  H    0.266220
    54  H    0.250714
    55  H    0.316028
    56  H    0.265805
    57  H    0.264746
    58  H    0.274974
    59  H    0.250506
    60  H    0.261692
    61  H    0.247733
    62  C   -1.042598
    63  H    0.234423
    64  H    0.266261
    65  H    0.243201
 Sum of Mulliken atomic charges =   0.00000

 Dipole moment (field-independent basis, Debye):
    X=              2.5566    Y=              6.5034    Z=             -0.6435  Tot=              7.0174
 Quadrupole moment (field-independent basis, Debye-Ang):
   XX=           -182.7055   YY=           -191.1378   ZZ=           -189.0183
   XY=             -8.7095   XZ=              8.7893   YZ=              5.1666

 Normal termination of Gaussian 09 at Wed Apr 14 01:02:07 2021.
