 Gaussian 09, Revision B.01,
 Gaussian 09:  EM64L-G09RevB.01 12-Aug-2010

 ----------------------------------------
 # opt b3lyp/6-311+g(d) geom=connectivity
 ----------------------------------------

 -------------------
 Title Card Required
 -------------------
 Symbolic Z-matrix:
 Charge =  0 Multiplicity = 1

 SCF Done:  E(RB3LYP) =  -1387.64989148     A.U. after   17 cycles
 SCF Done:  E(RB3LYP) =  -1387.65051785     A.U. after   14 cycles
 SCF Done:  E(RB3LYP) =  -1387.65042942     A.U. after   15 cycles
 SCF Done:  E(RB3LYP) =  -1387.65076939     A.U. after   13 cycles
 SCF Done:  E(RB3LYP) =  -1387.65068183     A.U. after   16 cycles
 SCF Done:  E(RB3LYP) =  -1387.65114261     A.U. after   13 cycles
 SCF Done:  E(RB3LYP) =  -1387.65129564     A.U. after   13 cycles
 SCF Done:  E(RB3LYP) =  -1387.65131882     A.U. after   14 cycles
 SCF Done:  E(RB3LYP) =  -1387.65136311     A.U. after   14 cycles
 SCF Done:  E(RB3LYP) =  -1387.65129494     A.U. after   14 cycles
 SCF Done:  E(RB3LYP) =  -1387.65137848     A.U. after   14 cycles
 SCF Done:  E(RB3LYP) =  -1387.65138243     A.U. after   12 cycles
 SCF Done:  E(RB3LYP) =  -1387.65137852     A.U. after   12 cycles
 SCF Done:  E(RB3LYP) =  -1387.65137930     A.U. after   10 cycles
 SCF Done:  E(RB3LYP) =  -1387.65137964     A.U. after   10 cycles
 SCF Done:  E(RB3LYP) =  -1387.65137972     A.U. after    9 cycles
 Optimization completed.
    -- Stationary point found.

                         Standard orientation:
 ---------------------------------------------------------------------
 Center     Atomic      Atomic             Coordinates (Angstroms)
 Number     Number       Type             X           Y           Z
 ---------------------------------------------------------------------
      1          6           0        1.698370    0.744054    3.083953
      2          6           0        1.813080    1.819940    2.302438
      3          6           0        1.890834    1.694232    0.797512
      4          6           0        1.545052    0.291936    0.207738
      5          6           0        1.032316   -0.814761    1.167289
      6          6           0        1.651965   -0.668839    2.577325
      7          6           0        0.556253    0.598167   -0.948165
      8          6           0       -0.889713    0.622520   -0.501919
      9          6           0       -1.406180   -0.142763    0.484294
     10          6           0       -0.508330   -0.942991    1.316746
     11          6           0       -2.880034   -0.089048    0.841698
     12          8           0       -3.371437    0.950588    1.223598
     13          6           0       -3.689826   -1.367208    0.651027
     14          6           0       -3.957595   -1.548210   -0.866209
     15          6           0       -4.970008   -1.344697    1.488494
     16          8           0       -0.942128   -1.702020    2.173506
     17          6           0        0.710915    2.082999   -1.335113
     18          6           0       -0.662570    2.422953   -1.961429
     19          8           0       -1.581873    1.513839   -1.213424
     20          6           0        1.015718    2.724950    0.030798
     21          8           0        0.648806   -0.325911   -2.018051
     22          6           0        1.571845   -2.098926    0.488208
     23          6           0        2.929122   -1.643570   -0.063518
     24          8           0        2.747492   -0.253480   -0.394812
     25          6           0        3.460468   -2.435607   -1.236824
     26          6           0        3.564221   -3.921088   -1.003925
     27          6           0        3.856109   -1.855838   -2.371506
     28          6           0       -0.751747    2.066743   -3.444169
     29          6           0       -1.173245    3.837461   -1.715183
     30          1           0        1.526598    2.233510   -2.046235
     31          1           0        2.934132    1.864950    0.502540
     32          6           0        1.943036    3.209218    2.872089
     33          1           0        1.678499    0.874854    4.163862
     34          1           0        2.671608   -1.076014    2.571494
     35          1           0        1.082712   -1.305701    3.256783
     36          1           0       -3.051805   -2.194122    0.980639
     37          1           0       -4.626259   -0.748103   -1.204600
     38          1           0       -3.019556   -1.415653   -1.415895
     39          1           0       -4.742247   -1.186687    2.544993
     40          1           0       -5.509053   -2.290739    1.402199
     41          1           0       -5.635973   -0.538460    1.172431
     42          1           0        1.508719    3.694381   -0.060321
     43          1           0        0.087485    2.890235    0.583355
     44          1           0        1.587633   -0.553326   -2.113943
     45          1           0        0.917807   -2.413336   -0.328505
     46          1           0        1.652387   -2.921935    1.199803
     47          1           0        3.684888   -1.696527    0.734138
     48          1           0        4.039800   -4.422105   -1.848490
     49          1           0        4.155311   -4.140647   -0.107222
     50          1           0        2.580695   -4.376752   -0.850333
     51          1           0        4.250350   -2.443721   -3.194211
     52          1           0        3.827978   -0.780835   -2.506442
     53          1           0       -0.409111    1.050149   -3.629477
     54          1           0       -1.784263    2.160916   -3.788690
     55          1           0       -0.136649    2.755280   -4.030928
     56          1           0       -1.241206    4.073591   -0.653736
     57          1           0       -0.506708    4.562454   -2.190941
     58          1           0       -2.168100    3.958993   -2.148942
     59          1           0        2.869239    3.689506    2.533171
     60          1           0        1.120647    3.862751    2.563337
     61          1           0        1.957203    3.188603    3.963524
     62          6           0       -4.550733   -2.911592   -1.231592
     63          1           0       -3.903461   -3.728730   -0.897293
     64          1           0       -4.665130   -3.004282   -2.315570
     65          1           0       -5.537006   -3.066825   -0.787387
 ---------------------------------------------------------------------

 The electronic state is 1-A.
 Alpha  occ. eigenvalues --  -19.17520 -19.14651 -19.13938 -19.10894 -19.10658
 Alpha  occ. eigenvalues --  -10.26498 -10.26461 -10.25811 -10.25754 -10.25325
 Alpha  occ. eigenvalues --  -10.25282 -10.24408 -10.20775 -10.19912 -10.19769
 Alpha  occ. eigenvalues --  -10.19407 -10.18817 -10.18657 -10.18369 -10.18319
 Alpha  occ. eigenvalues --  -10.18049 -10.17736 -10.17486 -10.17182 -10.17068
 Alpha  occ. eigenvalues --  -10.17002 -10.16932 -10.16875 -10.16622 -10.15509
 Alpha  occ. eigenvalues --  -10.14555  -1.10191  -1.07035  -1.04605  -1.03957
 Alpha  occ. eigenvalues --   -1.03832  -0.87735  -0.84613  -0.83417  -0.82424
 Alpha  occ. eigenvalues --   -0.81180  -0.80482  -0.77647  -0.75172  -0.74099
 Alpha  occ. eigenvalues --   -0.72689  -0.72233  -0.70666  -0.70426  -0.68830
 Alpha  occ. eigenvalues --   -0.66523  -0.65321  -0.64125  -0.62516  -0.61541
 Alpha  occ. eigenvalues --   -0.60424  -0.59286  -0.57925  -0.55789  -0.54913
 Alpha  occ. eigenvalues --   -0.53783  -0.53271  -0.51789  -0.51307  -0.50205
 Alpha  occ. eigenvalues --   -0.49095  -0.48596  -0.47719  -0.47294  -0.46747
 Alpha  occ. eigenvalues --   -0.46036  -0.45727  -0.45331  -0.44629  -0.44374
 Alpha  occ. eigenvalues --   -0.44077  -0.43493  -0.42954  -0.42639  -0.42307
 Alpha  occ. eigenvalues --   -0.42159  -0.41710  -0.41419  -0.40889  -0.40195
 Alpha  occ. eigenvalues --   -0.39894  -0.39616  -0.39114  -0.38941  -0.38608
 Alpha  occ. eigenvalues --   -0.38474  -0.38413  -0.38084  -0.37966  -0.37452
 Alpha  occ. eigenvalues --   -0.37142  -0.36490  -0.35912  -0.35760  -0.35599
 Alpha  occ. eigenvalues --   -0.35030  -0.34912  -0.34527  -0.33819  -0.33013
 Alpha  occ. eigenvalues --   -0.32581  -0.32241  -0.31958  -0.29511  -0.27767
 Alpha  occ. eigenvalues --   -0.26976  -0.26036  -0.25242  -0.24472  -0.24085
 Alpha virt. eigenvalues --   -0.05861  -0.02328  -0.01581  -0.01027  -0.00222
 Alpha virt. eigenvalues --    0.00333   0.00660   0.01138   0.01565   0.01774
 Alpha virt. eigenvalues --    0.01982   0.02563   0.02889   0.03364   0.03510

 Mulliken atomic charges:
              1
     1  C   -0.090388
     2  C    0.572708
     3  C   -0.127887
     4  C   -0.413163
     5  C    1.009034
     6  C   -0.770738
     7  C   -1.229773
     8  C    0.257780
     9  C    0.636135
    10  C   -0.675385
    11  C   -0.279806
    12  O   -0.167661
    13  C    0.305275
    14  C   -0.193465
    15  C   -1.098109
    16  O   -0.191081
    17  C   -0.068998
    18  C    0.550767
    19  O    0.173841
    20  C   -1.234186
    21  O    0.000371
    22  C   -0.805971
    23  C   -0.428792
    24  O   -0.056495
    25  C    1.017467
    26  C   -1.119362
    27  C   -0.782331
    28  C   -0.786157
    29  C   -0.641737
    30  H    0.232673
    31  H    0.275800
    32  C   -1.052005
    33  H    0.200377
    34  H    0.242792
    35  H    0.281462
    36  H    0.270407
    37  H    0.250388
    38  H    0.265518
    39  H    0.259290
    40  H    0.237299
    41  H    0.270499
    42  H    0.266416
    43  H    0.287331
    44  H    0.271936
    45  H    0.294004
    46  H    0.277055
    47  H    0.247082
    48  H    0.259869
    49  H    0.261554
    50  H    0.267394
    51  H    0.223203
    52  H    0.243229
    53  H    0.306061
    54  H    0.261896
    55  H    0.249435
    56  H    0.265661
    57  H    0.261754
    58  H    0.269173
    59  H    0.254013
    60  H    0.259561
    61  H    0.257053
    62  C   -1.116085
    63  H    0.246414
    64  H    0.244016
    65  H    0.245582
 Sum of Mulliken atomic charges =   0.00000

 Dipole moment (field-independent basis, Debye):
    X=              4.6075    Y=              0.7931    Z=             -2.7526  Tot=              5.4254
 Quadrupole moment (field-independent basis, Debye-Ang):
   XX=           -194.1906   YY=           -175.5370   ZZ=           -189.6033
   XY=              0.9569   XZ=              7.9304   YZ=             -2.4170

 Normal termination of Gaussian 09 at Tue Apr 13 17:53:07 2021.
