 Gaussian 09, Revision B.01,
 Gaussian 09:  EM64L-G09RevB.01 12-Aug-2010

 ----------------------------------------
 # opt b3lyp/6-311+g(d) geom=connectivity
 ----------------------------------------

 -------------------
 Title Card Required
 -------------------
 Symbolic Z-matrix:
 Charge =  0 Multiplicity = 1

 SCF Done:  E(RB3LYP) =  -1387.65066222     A.U. after   17 cycles
 SCF Done:  E(RB3LYP) =  -1387.65099152     A.U. after   13 cycles
 SCF Done:  E(RB3LYP) =  -1387.64827154     A.U. after   17 cycles
 SCF Done:  E(RB3LYP) =  -1387.65116602     A.U. after   16 cycles
 SCF Done:  E(RB3LYP) =  -1387.65123801     A.U. after   13 cycles
 SCF Done:  E(RB3LYP) =  -1387.65126867     A.U. after   14 cycles
 SCF Done:  E(RB3LYP) =  -1387.65132692     A.U. after   12 cycles
 SCF Done:  E(RB3LYP) =  -1387.65133775     A.U. after   12 cycles
 SCF Done:  E(RB3LYP) =  -1387.65133657     A.U. after   12 cycles
 SCF Done:  E(RB3LYP) =  -1387.65133647     A.U. after   11 cycles
 SCF Done:  E(RB3LYP) =  -1387.65133733     A.U. after   11 cycles
 SCF Done:  E(RB3LYP) =  -1387.65133782     A.U. after   10 cycles
 Optimization completed.
    -- Stationary point found.

                         Standard orientation:
 ---------------------------------------------------------------------
 Center     Atomic      Atomic             Coordinates (Angstroms)
 Number     Number       Type             X           Y           Z
 ---------------------------------------------------------------------
      1          6           0        1.532932    0.123683    3.211598
      2          6           0        1.566326    1.355176    2.697328
      3          6           0        1.699866    1.580859    1.207505
      4          6           0        1.499745    0.324889    0.304797
      5          6           0        1.062555   -1.007548    0.968004
      6          6           0        1.634286   -1.135238    2.398278
      7          6           0        0.520303    0.799539   -0.798994
      8          6           0       -0.936390    0.607825   -0.428056
      9          6           0       -1.410468   -0.406907    0.333855
     10          6           0       -0.463750   -1.289051    1.016449
     11          6           0       -2.891736   -0.578397    0.581367
     12          8           0       -3.556945    0.357874    0.972945
     13          6           0       -3.534934   -1.936541    0.284420
     14          6           0       -4.568444   -1.782521   -0.853197
     15          6           0       -4.192676   -2.491812    1.557744
     16          8           0       -0.849753   -2.246214    1.674456
     17          6           0        0.554150    2.340414   -0.842465
     18          6           0       -0.824363    2.700394   -1.445043
     19          8           0       -1.680078    1.575074   -0.960426
     20          6           0        0.760501    2.684175    0.644913
     21          8           0        0.724192    0.147428   -2.039744
     22          6           0        1.725468   -2.054910    0.038613
     23          6           0        3.053748   -1.382129   -0.332477
     24          8           0        2.763600    0.029221   -0.345000
     25          6           0        3.682942   -1.837743   -1.629864
     26          6           0        3.897465   -3.325222   -1.742546
     27          6           0        4.067411   -0.981306   -2.577945
     28          6           0       -0.838641    2.679339   -2.972127
     29          6           0       -1.468516    3.976223   -0.916985
     30          1           0        1.374393    2.709714   -1.462423
     31          1           0        2.731992    1.898347    1.011059
     32          6           0        1.546102    2.584972    3.568227
     33          1           0        1.470869    0.002921    4.291059
     34          1           0        2.688449   -1.437396    2.344802
     35          1           0        1.113755   -1.958155    2.891300
     36          1           0       -2.753735   -2.630446   -0.038044
     37          1           0       -5.083790   -2.743674   -0.963768
     38          1           0       -5.326870   -1.058734   -0.537647
     39          1           0       -3.453110   -2.644492    2.345377
     40          1           0       -4.668074   -3.454356    1.347367
     41          1           0       -4.958516   -1.805365    1.926871
     42          1           0        1.169096    3.685410    0.792219
     43          1           0       -0.194987    2.649863    1.174400
     44          1           0        1.682165    0.028927   -2.142402
     45          1           0        1.119871   -2.216484   -0.856146
     46          1           0        1.855362   -3.012144    0.545478
     47          1           0        3.789102   -1.560142    0.465951
     48          1           0        4.475794   -3.707041   -0.893187
     49          1           0        2.948896   -3.871619   -1.746759
     50          1           0        4.437543   -3.579541   -2.655832
     51          1           0        4.533333   -1.330314   -3.493868
     52          1           0        3.957758    0.090518   -2.460899
     53          1           0       -1.864666    2.768964   -3.336578
     54          1           0       -0.268179    3.527582   -3.361735
     55          1           0       -0.404510    1.759848   -3.360947
     56          1           0       -0.858230    4.842105   -1.188994
     57          1           0       -2.458216    4.108658   -1.359042
     58          1           0       -1.586277    3.961535    0.165948
     59          1           0        1.530313    2.319142    4.627001
     60          1           0        2.431202    3.208463    3.391820
     61          1           0        0.673937    3.216731    3.371631
     62          6           0       -3.978205   -1.365125   -2.202953
     63          1           0       -4.754441   -1.332893   -2.973097
     64          1           0       -3.521888   -0.372188   -2.160933
     65          1           0       -3.210526   -2.069028   -2.540494
 ---------------------------------------------------------------------

 The electronic state is 1-A.
 Alpha  occ. eigenvalues --  -19.17651 -19.14684 -19.13977 -19.10664 -19.10661
 Alpha  occ. eigenvalues --  -10.26699 -10.26503 -10.25870 -10.25637 -10.25390
 Alpha  occ. eigenvalues --  -10.25313 -10.24438 -10.20783 -10.19932 -10.19832
 Alpha  occ. eigenvalues --  -10.19482 -10.18841 -10.18749 -10.18461 -10.18409
 Alpha  occ. eigenvalues --  -10.18058 -10.17770 -10.17507 -10.17197 -10.17148
 Alpha  occ. eigenvalues --  -10.17014 -10.16902 -10.16797 -10.15915 -10.14890
 Alpha  occ. eigenvalues --  -10.14464  -1.10366  -1.07084  -1.04547  -1.03895
 Alpha  occ. eigenvalues --   -1.03853  -0.87805  -0.84656  -0.83439  -0.82443
 Alpha  occ. eigenvalues --   -0.81239  -0.80008  -0.77702  -0.75213  -0.74150
 Alpha  occ. eigenvalues --   -0.72670  -0.72167  -0.70701  -0.70443  -0.68877
 Alpha  occ. eigenvalues --   -0.66160  -0.64630  -0.64092  -0.62435  -0.61609
 Alpha  occ. eigenvalues --   -0.60550  -0.59798  -0.57990  -0.55733  -0.54949
 Alpha  occ. eigenvalues --   -0.53708  -0.53291  -0.51760  -0.51298  -0.50244
 Alpha  occ. eigenvalues --   -0.49314  -0.48749  -0.47806  -0.47257  -0.46819
 Alpha  occ. eigenvalues --   -0.45999  -0.45497  -0.44829  -0.44547  -0.44173
 Alpha  occ. eigenvalues --   -0.43783  -0.43040  -0.42753  -0.42520  -0.42229
 Alpha  occ. eigenvalues --   -0.41877  -0.41590  -0.41218  -0.41030  -0.40744
 Alpha  occ. eigenvalues --   -0.40062  -0.39950  -0.39649  -0.39117  -0.38940
 Alpha  occ. eigenvalues --   -0.38573  -0.38278  -0.38025  -0.37989  -0.37488
 Alpha  occ. eigenvalues --   -0.37123  -0.36062  -0.35979  -0.35596  -0.35473
 Alpha  occ. eigenvalues --   -0.34941  -0.34622  -0.33931  -0.33530  -0.33040
 Alpha  occ. eigenvalues --   -0.32472  -0.32192  -0.31543  -0.29560  -0.27789
 Alpha  occ. eigenvalues --   -0.27006  -0.26046  -0.25238  -0.24536  -0.24063
 Alpha virt. eigenvalues --   -0.06035  -0.02734  -0.01610  -0.01071  -0.00203
 Alpha virt. eigenvalues --    0.00288   0.00584   0.01233   0.01540   0.01775
 Alpha virt. eigenvalues --    0.01994   0.02634   0.02877   0.03360   0.03669

 Mulliken atomic charges:
              1
     1  C   -0.115419
     2  C    0.595775
     3  C   -0.119111
     4  C   -0.398868
     5  C    0.937378
     6  C   -0.675784
     7  C   -1.226484
     8  C    0.191717
     9  C    0.571907
    10  C   -0.768833
    11  C    0.075396
    12  O   -0.184873
    13  C    0.255075
    14  C   -0.374745
    15  C   -1.113167
    16  O   -0.188929
    17  C   -0.171434
    18  C    0.562533
    19  O    0.149015
    20  C   -1.121981
    21  O   -0.002909
    22  C   -0.812111
    23  C   -0.422502
    24  O   -0.074866
    25  C    1.014368
    26  C   -1.116046
    27  C   -0.775684
    28  C   -0.816611
    29  C   -0.665945
    30  H    0.235309
    31  H    0.274179
    32  C   -1.035744
    33  H    0.202235
    34  H    0.243020
    35  H    0.283203
    36  H    0.229625
    37  H    0.222060
    38  H    0.264585
    39  H    0.277697
    40  H    0.232629
    41  H    0.269339
    42  H    0.265514
    43  H    0.280595
    44  H    0.275355
    45  H    0.291201
    46  H    0.277376
    47  H    0.248361
    48  H    0.262391
    49  H    0.267976
    50  H    0.259949
    51  H    0.223053
    52  H    0.242941
    53  H    0.264658
    54  H    0.253559
    55  H    0.311076
    56  H    0.260266
    57  H    0.270578
    58  H    0.264940
    59  H    0.257361
    60  H    0.254521
    61  H    0.260519
    62  C   -0.958181
    63  H    0.247150
    64  H    0.271385
    65  H    0.242458
 Sum of Mulliken atomic charges =   0.00000

 Dipole moment (field-independent basis, Debye):
    X=              4.8154    Y=              1.7887    Z=             -1.8509  Tot=              5.4602
 Quadrupole moment (field-independent basis, Debye-Ang):
   XX=           -195.9976   YY=           -174.9381   ZZ=           -188.4834
   XY=             -2.3541   XZ=              5.8244   YZ=              1.4688

 Normal termination of Gaussian 09 at Tue Apr 13 16:54:43 2021.
