 Gaussian 09, Revision B.01,
 Gaussian 09:  EM64L-G09RevB.01 12-Aug-2010

 --------------------------------------
 # opt b3lyp/6-31g(d) geom=connectivity
 --------------------------------------

 -------------------
 Title Card Required
 -------------------
 Symbolic Z-matrix:
 Charge =  0 Multiplicity = 1

 SCF Done:  E(RB3LYP) =  -1718.35741744     A.U. after   15 cycles
 SCF Done:  E(RB3LYP) =  -1718.36956770     A.U. after   13 cycles
 SCF Done:  E(RB3LYP) =  -1718.37166762     A.U. after   13 cycles
 SCF Done:  E(RB3LYP) =  -1718.37049569     A.U. after   13 cycles
 SCF Done:  E(RB3LYP) =  -1718.37218354     A.U. after   12 cycles
 SCF Done:  E(RB3LYP) =  -1718.37262067     A.U. after   12 cycles
 SCF Done:  E(RB3LYP) =  -1718.37258746     A.U. after   12 cycles
 SCF Done:  E(RB3LYP) =  -1718.37274979     A.U. after   11 cycles
 SCF Done:  E(RB3LYP) =  -1718.37279217     A.U. after   11 cycles
 SCF Done:  E(RB3LYP) =  -1718.37279241     A.U. after   10 cycles
 SCF Done:  E(RB3LYP) =  -1718.37279611     A.U. after    8 cycles
 SCF Done:  E(RB3LYP) =  -1718.37279808     A.U. after    8 cycles
 SCF Done:  E(RB3LYP) =  -1718.37279861     A.U. after    8 cycles
 SCF Done:  E(RB3LYP) =  -1718.37279873     A.U. after    7 cycles
 SCF Done:  E(RB3LYP) =  -1718.37279884     A.U. after    7 cycles
 SCF Done:  E(RB3LYP) =  -1718.37279900     A.U. after    7 cycles
 SCF Done:  E(RB3LYP) =  -1718.37279917     A.U. after    7 cycles
 SCF Done:  E(RB3LYP) =  -1718.37279920     A.U. after    6 cycles
 Optimization completed.
    -- Stationary point found.

                         Standard orientation:
 ---------------------------------------------------------------------
 Center     Atomic      Atomic             Coordinates (Angstroms)
 Number     Number       Type             X           Y           Z
 ---------------------------------------------------------------------
      1          6           0        5.759390   -0.667892   -1.181629
      2          6           0        4.797815   -1.683887   -1.315995
      3          6           0        3.538205   -1.622037   -0.708833
      4          6           0        3.200670   -0.516667    0.069239
      5          6           0        4.149957    0.529280    0.233388
      6          6           0        5.423450    0.444749   -0.397376
      7          6           0        1.914406   -0.374630    0.736822
      8          6           0        1.690096    0.718731    1.498464
      9          8           0        2.611924    1.723679    1.648377
     10          6           0        3.842915    1.685105    1.040629
     11          6           0        0.858163   -1.450703    0.598270
     12          6           0       -0.543732   -1.004908    1.063617
     13          6           0       -0.438122   -0.249126    2.397017
     14          6           0        0.429620    1.006260    2.256234
     15          6           0        7.105201   -0.770387   -1.856667
     16          8           0        6.333393    1.422534   -0.259319
     17          8           0        5.049852   -2.796450   -2.057045
     18          8           0        4.588025    2.643377    1.240713
     19          8           0       -1.036862   -0.194715   -0.015312
     20          6           0       -2.283807    0.506789    0.111283
     21          6           0       -2.173849    1.682876   -0.860276
     22          6           0       -3.386178    2.599129   -0.726330
     23          6           0       -4.659915    1.808094   -0.784922
     24          6           0       -4.722894    0.488381   -0.548257
     25          6           0       -3.505633   -0.360666   -0.231233
     26          8           0       -1.020619    2.476152   -0.608896
     27          8           0       -3.410413    3.580669   -1.753360
     28          6           0       -6.066679   -0.158457   -0.631107
     29          8           0       -5.987517   -1.497601   -0.433205
     30          8           0       -7.114076    0.415809   -0.851371
     31          6           0       -7.239362   -2.198277   -0.500708
     32          6           0       -1.427546   -2.255684    1.235820
     33          8           0       -1.502622   -2.980916    0.097490
     34          8           0       -1.991421   -2.578208    2.258174
     35          1           0        2.856542   -2.449209   -0.863318
     36          1           0        1.161799   -2.343729    1.163111
     37          1           0        0.766767   -1.762412   -0.446484
     38          1           0        0.005775   -0.934128    3.127395
     39          1           0       -1.426675    0.001516    2.790399
     40          1           0       -0.116416    1.808358    1.741676
     41          1           0        0.693027    1.398621    3.245433
     42          1           0        7.704459    0.114735   -1.639919
     43          1           0        7.675040   -1.644478   -1.509235
     44          1           0        7.012736   -0.842772   -2.950063
     45          1           0        5.926289    2.119547    0.321612
     46          1           0        5.943811   -2.740417   -2.429374
     47          1           0       -2.386729    0.910583    1.126484
     48          1           0       -2.151522    1.291368   -1.889305
     49          1           0       -3.320153    3.094861    0.260233
     50          1           0       -5.568918    2.353404   -1.023264
     51          1           0       -3.738759   -1.038996    0.595420
     52          1           0       -3.257446   -0.998825   -1.089029
     53          1           0       -0.259970    1.875364   -0.679259
     54          1           0       -2.544595    4.020989   -1.718722
     55          1           0       -6.998837   -3.246174   -0.318243
     56          1           0       -7.929999   -1.823670    0.259384
     57          1           0       -7.696247   -2.073107   -1.485952
     58          1           0       -2.080319   -3.742524    0.296333
 ---------------------------------------------------------------------

 The electronic state is 1-A.
 Alpha  occ. eigenvalues --  -19.22178 -19.21768 -19.19789 -19.19781 -19.17948
 Alpha  occ. eigenvalues --  -19.17463 -19.16304 -19.16266 -19.14807 -19.14414
 Alpha  occ. eigenvalues --  -19.13561 -10.33910 -10.32939 -10.31766 -10.28212
 Alpha  occ. eigenvalues --  -10.27254 -10.27189 -10.27104 -10.25681 -10.25005
 Alpha  occ. eigenvalues --  -10.24586 -10.24479 -10.22680 -10.21664 -10.21541
 Alpha  occ. eigenvalues --  -10.21531 -10.21044 -10.20867 -10.20853 -10.20761
 Alpha  occ. eigenvalues --  -10.20520 -10.20379 -10.20038 -10.19379  -1.12822
 Alpha  occ. eigenvalues --   -1.12590  -1.10444  -1.08042  -1.06831  -1.06308
 Alpha  occ. eigenvalues --   -1.03831  -1.03710  -1.02999  -1.01697  -1.01433
 Alpha  occ. eigenvalues --   -0.88033  -0.86190  -0.84632  -0.80955  -0.79309
 Alpha  occ. eigenvalues --   -0.77146  -0.76459  -0.76318  -0.74776  -0.72301
 Alpha  occ. eigenvalues --   -0.71044  -0.69093  -0.66458  -0.66176  -0.64556
 Alpha  occ. eigenvalues --   -0.64017  -0.63259  -0.61606  -0.59016  -0.57890
 Alpha  occ. eigenvalues --   -0.57259  -0.55851  -0.55313  -0.54167  -0.53299
 Alpha  occ. eigenvalues --   -0.52447  -0.51811  -0.51070  -0.50482  -0.49425
 Alpha  occ. eigenvalues --   -0.49184  -0.48711  -0.48553  -0.48226  -0.47539
 Alpha  occ. eigenvalues --   -0.46993  -0.46628  -0.45953  -0.45520  -0.44962
 Alpha  occ. eigenvalues --   -0.44514  -0.44077  -0.43869  -0.43392  -0.42679
 Alpha  occ. eigenvalues --   -0.42529  -0.42121  -0.41843  -0.41433  -0.41296
 Alpha  occ. eigenvalues --   -0.40605  -0.40318  -0.40017  -0.39923  -0.39484
 Alpha  occ. eigenvalues --   -0.38992  -0.38257  -0.37924  -0.37658  -0.37431
 Alpha  occ. eigenvalues --   -0.36255  -0.35837  -0.35636  -0.35293  -0.34882
 Alpha  occ. eigenvalues --   -0.34101  -0.33853  -0.33703  -0.33068  -0.30899
 Alpha  occ. eigenvalues --   -0.30637  -0.28768  -0.28571  -0.28362  -0.28170
 Alpha  occ. eigenvalues --   -0.27073  -0.26576  -0.25885  -0.23680  -0.21981
 Alpha virt. eigenvalues --   -0.04802  -0.04515  -0.03037  -0.02057   0.03689
 Alpha virt. eigenvalues --    0.05099   0.05500   0.06037   0.06388   0.07308
 Alpha virt. eigenvalues --    0.07682   0.09407   0.10201   0.10758   0.11010

 Mulliken atomic charges:
              1
     1  C    0.110048
     2  C    0.300460
     3  C   -0.273752
     4  C    0.142303
     5  C   -0.062349
     6  C    0.239579
     7  C    0.052827
     8  C    0.277830
     9  O   -0.497289
    10  C    0.598822
    11  C   -0.370040
    12  C    0.246109
    13  C   -0.304284
    14  C   -0.360635
    15  C   -0.585838
    16  O   -0.659287
    17  O   -0.638013
    18  O   -0.536180
    19  O   -0.551891
    20  C    0.127560
    21  C    0.094105
    22  C    0.105791
    23  C   -0.148613
    24  C    0.058389
    25  C   -0.366136
    26  O   -0.652929
    27  O   -0.636281
    28  C    0.596565
    29  O   -0.469418
    30  O   -0.488472
    31  C   -0.217177
    32  C    0.587551
    33  O   -0.565993
    34  O   -0.467764
    35  H    0.142974
    36  H    0.166497
    37  H    0.191620
    38  H    0.167068
    39  H    0.168456
    40  H    0.189502
    41  H    0.176442
    42  H    0.210003
    43  H    0.161762
    44  H    0.161793
    45  H    0.449461
    46  H    0.422380
    47  H    0.138594
    48  H    0.141080
    49  H    0.142102
    50  H    0.185179
    51  H    0.173532
    52  H    0.178378
    53  H    0.413613
    54  H    0.408527
    55  H    0.161829
    56  H    0.174161
    57  H    0.173764
    58  H    0.415684
 Sum of Mulliken atomic charges =   0.00000

 Dipole moment (field-independent basis, Debye):
    X=              1.1262    Y=             -5.7053    Z=             -0.5190  Tot=              5.8385
 Quadrupole moment (field-independent basis, Debye-Ang):
   XX=           -202.1056   YY=           -194.8177   ZZ=           -195.4757
   XY=              1.8064   XZ=            -17.5373   YZ=              6.0642

 Normal termination of Gaussian 09 at Tue Feb  2 11:57:57 2021.
