 Gaussian 09, Revision B.01,
 Gaussian 09:  EM64L-G09RevB.01 12-Aug-2010

 --------------------------------------
 # opt b3lyp/6-31g(d) geom=connectivity
 --------------------------------------

 -------------------
 Title Card Required
 -------------------
 Symbolic Z-matrix:
 Charge =  0 Multiplicity = 1

 SCF Done:  E(RB3LYP) =  -1718.35899105     A.U. after   15 cycles
 SCF Done:  E(RB3LYP) =  -1718.37047231     A.U. after   13 cycles
 SCF Done:  E(RB3LYP) =  -1718.36562071     A.U. after   15 cycles
 SCF Done:  E(RB3LYP) =  -1718.37254811     A.U. after   13 cycles
 SCF Done:  E(RB3LYP) =  -1718.37239753     A.U. after   13 cycles
 SCF Done:  E(RB3LYP) =  -1718.37379161     A.U. after   12 cycles
 SCF Done:  E(RB3LYP) =  -1718.37431351     A.U. after   12 cycles
 SCF Done:  E(RB3LYP) =  -1718.37348894     A.U. after   13 cycles
 SCF Done:  E(RB3LYP) =  -1718.37454724     A.U. after   13 cycles
 SCF Done:  E(RB3LYP) =  -1718.37469552     A.U. after   12 cycles
 SCF Done:  E(RB3LYP) =  -1718.37484768     A.U. after   10 cycles
 SCF Done:  E(RB3LYP) =  -1718.37485510     A.U. after   10 cycles
 SCF Done:  E(RB3LYP) =  -1718.37485941     A.U. after   10 cycles
 SCF Done:  E(RB3LYP) =  -1718.37486090     A.U. after    7 cycles
 SCF Done:  E(RB3LYP) =  -1718.37486194     A.U. after    8 cycles
 SCF Done:  E(RB3LYP) =  -1718.37486240     A.U. after    7 cycles
 SCF Done:  E(RB3LYP) =  -1718.37486259     A.U. after    7 cycles
 SCF Done:  E(RB3LYP) =  -1718.37486268     A.U. after    7 cycles
 SCF Done:  E(RB3LYP) =  -1718.37486269     A.U. after    6 cycles
 SCF Done:  E(RB3LYP) =  -1718.37486274     A.U. after    7 cycles
 Optimization completed.
    -- Stationary point found.

                         Standard orientation:
 ---------------------------------------------------------------------
 Center     Atomic      Atomic             Coordinates (Angstroms)
 Number     Number       Type             X           Y           Z
 ---------------------------------------------------------------------
      1          6           0       -4.508520    0.564229    1.107522
      2          6           0       -3.460508    0.371220    2.023871
      3          6           0       -2.292402   -0.330763    1.704539
      4          6           0       -2.139288   -0.872558    0.429537
      5          6           0       -3.182221   -0.704470   -0.522616
      6          6           0       -4.359619    0.015980   -0.174293
      7          6           0       -0.955724   -1.612232    0.014371
      8          6           0       -0.914969   -2.131192   -1.232153
      9          8           0       -1.928608   -1.969376   -2.141362
     10          6           0       -3.068625   -1.262704   -1.848137
     11          6           0        0.204630   -1.804810    0.966388
     12          6           0        1.497260   -2.266048    0.272050
     13          6           0        1.181657   -3.404892   -0.714705
     14          6           0        0.219409   -2.922890   -1.806566
     15          6           0       -5.751420    1.329516    1.491159
     16          8           0       -5.354829    0.190078   -1.059270
     17          8           0       -3.532638    0.866664    3.288395
     18          8           0       -3.907014   -1.170204   -2.744103
     19          8           0        2.117777   -1.252002   -0.530291
     20          6           0        2.460022    0.019022    0.059860
     21          6           0        3.891375    0.338657   -0.375895
     22          6           0        4.358639    1.652844    0.247635
     23          6           0        3.349907    2.742168    0.036025
     24          6           0        2.058998    2.505160   -0.242550
     25          6           0        1.491311    1.109765   -0.420146
     26          8           0        4.818427   -0.654737    0.035528
     27          8           0        5.603431    2.066677   -0.299785
     28          6           0        1.163161    3.687955   -0.413875
     29          8           0       -0.092133    3.311619   -0.757550
     30          8           0        1.492355    4.849133   -0.274831
     31          6           0       -1.022976    4.387159   -0.953577
     32          6           0        2.505823   -2.747000    1.334931
     33          8           0        3.645780   -3.222070    0.767958
     34          8           0        2.345879   -2.711477    2.532837
     35          1           0       -1.538681   -0.441827    2.474289
     36          1           0       -0.050680   -2.539557    1.739645
     37          1           0        0.401031   -0.877954    1.513903
     38          1           0        0.731858   -4.233527   -0.153954
     39          1           0        2.108937   -3.771254   -1.161700
     40          1           0        0.754321   -2.302963   -2.536697
     41          1           0       -0.186218   -3.777854   -2.360311
     42          1           0       -5.524081    2.365720    1.780949
     43          1           0       -6.443731    1.371596    0.649448
     44          1           0       -6.284206    0.856612    2.328991
     45          1           0       -5.078316   -0.262455   -1.900699
     46          1           0       -4.378730    1.325670    3.408235
     47          1           0        2.445298   -0.061173    1.155335
     48          1           0        3.907143    0.454620   -1.471472
     49          1           0        4.471264    1.479147    1.334272
     50          1           0        3.699088    3.766594    0.131354
     51          1           0        0.529549    1.026501    0.095167
     52          1           0        1.272509    0.930972   -1.481359
     53          1           0        4.480099   -1.512736   -0.272746
     54          1           0        6.197013    1.302714   -0.206178
     55          1           0       -1.969600    3.910997   -1.210583
     56          1           0       -1.122897    4.978624   -0.039548
     57          1           0       -0.687658    5.041382   -1.762776
     58          1           0        4.243739   -3.448989    1.505970
 ---------------------------------------------------------------------

 The electronic state is 1-A.
 Alpha  occ. eigenvalues --  -19.22574 -19.22206 -19.19783 -19.19391 -19.17947
 Alpha  occ. eigenvalues --  -19.17518 -19.16938 -19.15453 -19.14551 -19.14440
 Alpha  occ. eigenvalues --  -19.13213 -10.34448 -10.32962 -10.31418 -10.28471
 Alpha  occ. eigenvalues --  -10.27230 -10.27227 -10.27126 -10.25645 -10.24679
 Alpha  occ. eigenvalues --  -10.24245 -10.24059 -10.22696 -10.21455 -10.21428
 Alpha  occ. eigenvalues --  -10.21354 -10.21299 -10.21171 -10.20879 -10.20555
 Alpha  occ. eigenvalues --  -10.20430 -10.20136 -10.20109 -10.19390  -1.13402
 Alpha  occ. eigenvalues --   -1.12627  -1.10080  -1.08053  -1.06876  -1.06161
 Alpha  occ. eigenvalues --   -1.04388  -1.03504  -1.03021  -1.01288  -1.01073
 Alpha  occ. eigenvalues --   -0.88008  -0.86215  -0.84460  -0.81127  -0.79039
 Alpha  occ. eigenvalues --   -0.77278  -0.76460  -0.76095  -0.74596  -0.71918
 Alpha  occ. eigenvalues --   -0.71028  -0.69580  -0.66568  -0.66123  -0.64546
 Alpha  occ. eigenvalues --   -0.63775  -0.62812  -0.61635  -0.59047  -0.58424
 Alpha  occ. eigenvalues --   -0.57419  -0.55729  -0.55316  -0.54331  -0.52772
 Alpha  occ. eigenvalues --   -0.52002  -0.51752  -0.51255  -0.50753  -0.50042
 Alpha  occ. eigenvalues --   -0.49384  -0.48388  -0.48196  -0.47860  -0.47707
 Alpha  occ. eigenvalues --   -0.46807  -0.46571  -0.45876  -0.45407  -0.44847
 Alpha  occ. eigenvalues --   -0.44503  -0.44296  -0.43545  -0.43425  -0.43082
 Alpha  occ. eigenvalues --   -0.42695  -0.42150  -0.41899  -0.41531  -0.40841
 Alpha  occ. eigenvalues --   -0.40516  -0.40161  -0.40037  -0.39939  -0.39223
 Alpha  occ. eigenvalues --   -0.38807  -0.38492  -0.37836  -0.37722  -0.37552
 Alpha  occ. eigenvalues --   -0.36006  -0.35882  -0.35413  -0.35236  -0.34975
 Alpha  occ. eigenvalues --   -0.34741  -0.33996  -0.33671  -0.32668  -0.31445
 Alpha  occ. eigenvalues --   -0.30248  -0.28851  -0.28577  -0.27975  -0.27753
 Alpha  occ. eigenvalues --   -0.26779  -0.26633  -0.25482  -0.23695  -0.21997
 Alpha virt. eigenvalues --   -0.04821  -0.04199  -0.03104  -0.02620   0.03590
 Alpha virt. eigenvalues --    0.04539   0.05472   0.05972   0.07069   0.07732
 Alpha virt. eigenvalues --    0.08211   0.09806   0.10162   0.11177   0.11542

 Mulliken atomic charges:
              1
     1  C    0.108863
     2  C    0.300777
     3  C   -0.276745
     4  C    0.141489
     5  C   -0.061201
     6  C    0.237520
     7  C    0.055896
     8  C    0.286583
     9  O   -0.499145
    10  C    0.599789
    11  C   -0.360892
    12  C    0.224674
    13  C   -0.303360
    14  C   -0.341132
    15  C   -0.585801
    16  O   -0.660097
    17  O   -0.636734
    18  O   -0.537723
    19  O   -0.542485
    20  C    0.099407
    21  C    0.105788
    22  C    0.106976
    23  C   -0.148375
    24  C    0.055404
    25  C   -0.351181
    26  O   -0.677783
    27  O   -0.637975
    28  C    0.596526
    29  O   -0.465752
    30  O   -0.490268
    31  C   -0.218086
    32  C    0.600462
    33  O   -0.584434
    34  O   -0.457917
    35  H    0.147550
    36  H    0.182946
    37  H    0.170536
    38  H    0.157665
    39  H    0.172774
    40  H    0.189237
    41  H    0.174700
    42  H    0.160769
    43  H    0.209445
    44  H    0.162388
    45  H    0.449143
    46  H    0.422389
    47  H    0.146807
    48  H    0.135897
    49  H    0.141121
    50  H    0.183746
    51  H    0.173510
    52  H    0.174315
    53  H    0.421048
    54  H    0.407338
    55  H    0.167515
    56  H    0.170861
    57  H    0.172914
    58  H    0.422318
 Sum of Mulliken atomic charges =   0.00000

 Dipole moment (field-independent basis, Debye):
    X=             -0.5420    Y=             -3.2043    Z=              2.2598  Tot=              3.9583
 Quadrupole moment (field-independent basis, Debye-Ang):
   XX=           -193.1964   YY=           -194.5596   ZZ=           -201.8704
   XY=            -31.2760   XZ=            -13.9857   YZ=              2.1010

 Normal termination of Gaussian 09 at Tue Feb  2 12:34:09 2021.
