 Gaussian 09, Revision B.01,
 Gaussian 09:  EM64L-G09RevB.01 12-Aug-2010

 --------------------------------------
 # opt b3lyp/6-31g(d) geom=connectivity
 --------------------------------------

 -------------------
 Title Card Required
 -------------------
 Symbolic Z-matrix:
 Charge =  0 Multiplicity = 1

 SCF Done:  E(RB3LYP) =  -1718.35780068     A.U. after   15 cycles
 SCF Done:  E(RB3LYP) =  -1718.36904635     A.U. after   13 cycles
 SCF Done:  E(RB3LYP) =  -1718.36640445     A.U. after   13 cycles
 SCF Done:  E(RB3LYP) =  -1718.37133739     A.U. after   12 cycles
 SCF Done:  E(RB3LYP) =  -1718.37125112     A.U. after   13 cycles
 SCF Done:  E(RB3LYP) =  -1718.37261452     A.U. after   12 cycles
 SCF Done:  E(RB3LYP) =  -1718.37320431     A.U. after   12 cycles
 SCF Done:  E(RB3LYP) =  -1718.37240808     A.U. after   13 cycles
 SCF Done:  E(RB3LYP) =  -1718.37353519     A.U. after   12 cycles
 SCF Done:  E(RB3LYP) =  -1718.37376592     A.U. after   12 cycles
 SCF Done:  E(RB3LYP) =  -1718.37376299     A.U. after   12 cycles
 SCF Done:  E(RB3LYP) =  -1718.37380658     A.U. after   11 cycles
 SCF Done:  E(RB3LYP) =  -1718.37382664     A.U. after   10 cycles
 SCF Done:  E(RB3LYP) =  -1718.37382868     A.U. after   10 cycles
 SCF Done:  E(RB3LYP) =  -1718.37383108     A.U. after    8 cycles
 SCF Done:  E(RB3LYP) =  -1718.37383157     A.U. after    8 cycles
 SCF Done:  E(RB3LYP) =  -1718.37383203     A.U. after    7 cycles
 Optimization completed.
    -- Stationary point found.

                         Standard orientation:
 ---------------------------------------------------------------------
 Center     Atomic      Atomic             Coordinates (Angstroms)
 Number     Number       Type             X           Y           Z
 ---------------------------------------------------------------------
      1          6           0        4.696537    2.247081   -0.709779
      2          6           0        3.316035    2.506418   -0.749209
      3          6           0        2.354897    1.557178   -0.383647
      4          6           0        2.758699    0.293683    0.041285
      5          6           0        4.148050   -0.003742    0.101527
      6          6           0        5.106713    0.977611   -0.278697
      7          6           0        1.823789   -0.748846    0.442321
      8          6           0        2.314305   -1.929372    0.879168
      9          8           0        3.655776   -2.207999    0.932435
     10          6           0        4.608284   -1.295272    0.550124
     11          6           0        0.328763   -0.504200    0.389835
     12          6           0       -0.505738   -1.792258    0.486767
     13          6           0        0.039999   -2.684154    1.610357
     14          6           0        1.494064   -3.092313    1.351807
     15          6           0        5.700977    3.297638   -1.115631
     16          8           0        6.423549    0.717394   -0.233642
     17          8           0        2.839076    3.715315   -1.151190
     18          8           0        5.781658   -1.655963    0.631291
     19          8           0       -1.870959   -1.540986    0.846371
     20          6           0       -2.685130   -0.695949    0.005612
     21          6           0       -3.999124   -1.443792   -0.224532
     22          6           0       -4.908055   -0.650524   -1.160750
     23          6           0       -5.029330    0.776040   -0.712044
     24          6           0       -4.142227    1.372799    0.099345
     25          6           0       -2.943776    0.653354    0.689334
     26          8           0       -3.796953   -2.713774   -0.828878
     27          8           0       -6.207723   -1.222430   -1.225543
     28          6           0       -4.384641    2.804391    0.448111
     29          8           0       -3.452895    3.267906    1.317137
     30          8           0       -5.295121    3.489525    0.027245
     31          6           0       -3.617566    4.637667    1.715929
     32          6           0       -0.502749   -2.530504   -0.871514
     33          8           0       -1.014769   -3.784760   -0.764227
     34          8           0       -0.149814   -2.063687   -1.929093
     35          1           0        1.311373    1.839762   -0.443030
     36          1           0        0.084992    0.015167   -0.541456
     37          1           0        0.025197    0.147485    1.219148
     38          1           0       -0.595338   -3.565865    1.720577
     39          1           0       -0.033565   -2.105928    2.538206
     40          1           0        1.945034   -3.496785    2.265700
     41          1           0        1.547845   -3.901199    0.609123
     42          1           0        6.714883    2.906383   -1.023854
     43          1           0        5.566112    3.614337   -2.160130
     44          1           0        5.637488    4.194368   -0.482224
     45          1           0        6.525305   -0.217452    0.089097
     46          1           0        3.581709    4.292502   -1.388306
     47          1           0       -2.196004   -0.549993   -0.965581
     48          1           0       -4.515848   -1.553633    0.742301
     49          1           0       -4.444079   -0.668291   -2.164588
     50          1           0       -5.878665    1.341327   -1.085649
     51          1           0       -2.055474    1.289915    0.628237
     52          1           0       -3.108093    0.472711    1.760197
     53          1           0       -3.168741   -3.200188   -0.268671
     54          1           0       -6.070932   -2.158682   -1.447746
     55          1           0       -2.798808    4.841838    2.406604
     56          1           0       -3.563481    5.299207    0.847234
     57          1           0       -4.582960    4.779816    2.208778
     58          1           0       -1.059210   -4.138726   -1.673518
 ---------------------------------------------------------------------

 The electronic state is 1-A.
 Alpha  occ. eigenvalues --  -19.22398 -19.22152 -19.19676 -19.19674 -19.17986
 Alpha  occ. eigenvalues --  -19.17381 -19.16740 -19.15758 -19.14699 -19.14363
 Alpha  occ. eigenvalues --  -19.13459 -10.34240 -10.32884 -10.31665 -10.28276
 Alpha  occ. eigenvalues --  -10.27256 -10.27089 -10.26991 -10.25586 -10.24833
 Alpha  occ. eigenvalues --  -10.24358 -10.24352 -10.22565 -10.21656 -10.21577
 Alpha  occ. eigenvalues --  -10.21399 -10.21244 -10.21099 -10.20775 -10.20660
 Alpha  occ. eigenvalues --  -10.20426 -10.20417 -10.19958 -10.19270  -1.13211
 Alpha  occ. eigenvalues --   -1.12569  -1.10335  -1.07937  -1.06746  -1.06175
 Alpha  occ. eigenvalues --   -1.04212  -1.03620  -1.02954  -1.01479  -1.01326
 Alpha  occ. eigenvalues --   -0.88016  -0.86288  -0.84719  -0.81027  -0.78859
 Alpha  occ. eigenvalues --   -0.77178  -0.76388  -0.76144  -0.74606  -0.72158
 Alpha  occ. eigenvalues --   -0.70894  -0.69285  -0.66505  -0.66121  -0.65230
 Alpha  occ. eigenvalues --   -0.64042  -0.62182  -0.61536  -0.59195  -0.58568
 Alpha  occ. eigenvalues --   -0.57386  -0.55748  -0.55081  -0.53947  -0.53693
 Alpha  occ. eigenvalues --   -0.52291  -0.51302  -0.51181  -0.50807  -0.50022
 Alpha  occ. eigenvalues --   -0.49246  -0.48565  -0.48443  -0.47987  -0.47610
 Alpha  occ. eigenvalues --   -0.47002  -0.46479  -0.45733  -0.45150  -0.44755
 Alpha  occ. eigenvalues --   -0.44492  -0.44165  -0.44002  -0.43525  -0.43119
 Alpha  occ. eigenvalues --   -0.42399  -0.42020  -0.41742  -0.41364  -0.41083
 Alpha  occ. eigenvalues --   -0.40583  -0.40179  -0.39902  -0.39787  -0.39365
 Alpha  occ. eigenvalues --   -0.39221  -0.38659  -0.37780  -0.37608  -0.37579
 Alpha  occ. eigenvalues --   -0.36149  -0.35705  -0.35548  -0.35331  -0.35125
 Alpha  occ. eigenvalues --   -0.34506  -0.33971  -0.33692  -0.32745  -0.31203
 Alpha  occ. eigenvalues --   -0.30519  -0.28850  -0.28549  -0.28184  -0.27944
 Alpha  occ. eigenvalues --   -0.26947  -0.26580  -0.25669  -0.23585  -0.21927
 Alpha virt. eigenvalues --   -0.04775  -0.04426  -0.02965  -0.02512   0.03727
 Alpha virt. eigenvalues --    0.04641   0.05590   0.06160   0.06734   0.07334
 Alpha virt. eigenvalues --    0.08769   0.09601   0.10258   0.10812   0.11165

 Mulliken atomic charges:
              1
     1  C    0.110922
     2  C    0.299706
     3  C   -0.267883
     4  C    0.143253
     5  C   -0.060304
     6  C    0.238733
     7  C    0.065297
     8  C    0.284313
     9  O   -0.499637
    10  C    0.599736
    11  C   -0.380508
    12  C    0.251756
    13  C   -0.295468
    14  C   -0.364253
    15  C   -0.585876
    16  O   -0.659817
    17  O   -0.638082
    18  O   -0.537150
    19  O   -0.557110
    20  C    0.104291
    21  C    0.103944
    22  C    0.105554
    23  C   -0.147918
    24  C    0.056241
    25  C   -0.349613
    26  O   -0.672590
    27  O   -0.637437
    28  C    0.596394
    29  O   -0.468552
    30  O   -0.489068
    31  C   -0.217604
    32  C    0.595172
    33  O   -0.581517
    34  O   -0.455138
    35  H    0.140744
    36  H    0.182308
    37  H    0.173823
    38  H    0.170520
    39  H    0.164711
    40  H    0.180439
    41  H    0.178991
    42  H    0.209618
    43  H    0.162049
    44  H    0.161462
    45  H    0.449135
    46  H    0.422262
    47  H    0.154712
    48  H    0.136348
    49  H    0.144056
    50  H    0.184582
    51  H    0.166460
    52  H    0.173090
    53  H    0.415390
    54  H    0.407295
    55  H    0.163990
    56  H    0.173131
    57  H    0.173486
    58  H    0.421611
 Sum of Mulliken atomic charges =   0.00000

 Dipole moment (field-independent basis, Debye):
    X=              0.7060    Y=              0.4094    Z=              1.2539  Tot=              1.4962
 Quadrupole moment (field-independent basis, Debye-Ang):
   XX=           -242.3785   YY=           -170.0653   ZZ=           -190.4577
   XY=             26.0718   XZ=             -9.9229   YZ=              3.8267

 Normal termination of Gaussian 09 at Tue Feb  2 12:00:51 2021.
