 Gaussian 09, Revision B.01,
 Gaussian 09:  EM64L-G09RevB.01 12-Aug-2010

 ----------------------------------------
 # opt b3lyp/6-311+g(d) geom=connectivity
 ----------------------------------------

 -------------------
 Title Card Required
 -------------------
 Symbolic Z-matrix:
 Charge =  0 Multiplicity = 1

 SCF Done:  E(RB3LYP) =  -1387.64942478     A.U. after   17 cycles
 SCF Done:  E(RB3LYP) =  -1387.64986063     A.U. after   15 cycles
 SCF Done:  E(RB3LYP) =  -1387.64955732     A.U. after   13 cycles
 SCF Done:  E(RB3LYP) =  -1387.64997232     A.U. after   13 cycles
 SCF Done:  E(RB3LYP) =  -1387.64991285     A.U. after   14 cycles
 SCF Done:  E(RB3LYP) =  -1387.65002128     A.U. after   13 cycles
 SCF Done:  E(RB3LYP) =  -1387.65002906     A.U. after   11 cycles
 SCF Done:  E(RB3LYP) =  -1387.65003074     A.U. after   11 cycles
 SCF Done:  E(RB3LYP) =  -1387.65003107     A.U. after    9 cycles
 SCF Done:  E(RB3LYP) =  -1387.65003115     A.U. after    9 cycles
 Optimization completed.
    -- Stationary point found.

                         Standard orientation:
 ---------------------------------------------------------------------
 Center     Atomic      Atomic             Coordinates (Angstroms)
 Number     Number       Type             X           Y           Z
 ---------------------------------------------------------------------
      1          6           0        1.848756    0.481124    2.871456
      2          6           0        2.265971    1.510001    2.129583
      3          6           0        1.778087    1.663255    0.709109
      4          6           0        1.389519    0.344638   -0.036412
      5          6           0        1.122371   -0.915810    0.857986
      6          6           0        0.892412   -0.558044    2.355760
      7          6           0        0.198565    0.761334   -0.959315
      8          6           0       -1.152755    0.313191   -0.430698
      9          6           0       -1.364929   -0.882902    0.155995
     10          6           0       -0.158291   -1.695932    0.448368
     11          6           0       -2.702787   -1.394263    0.616400
     12          8           0       -2.813042   -1.862811    1.731389
     13          6           0       -3.862604   -1.377360   -0.378365
     14          6           0       -5.232204   -1.370488    0.313977
     15          6           0       -3.696295   -2.607467   -1.298222
     16          8           0       -0.183258   -2.908666    0.487383
     17          6           0        0.038035    2.293022   -0.871510
     18          6           0       -1.463966    2.513461   -1.151652
     19          8           0       -2.080747    1.259287   -0.633786
     20          6           0        0.550801    2.594520    0.547752
     21          8           0        0.333722    0.262225   -2.277871
     22          6           0        2.386876   -1.789988    0.655450
     23          6           0        3.334479   -0.948565   -0.197654
     24          8           0        2.456450   -0.043846   -0.913164
     25          6           0        4.247220   -1.632548   -1.189711
     26          6           0        5.002473   -0.706131   -2.108832
     27          6           0        4.427115   -2.953815   -1.206428
     28          6           0       -1.771519    2.599238   -2.646122
     29          6           0       -2.121696    3.656790   -0.390309
     30          1           0        0.656033    2.788804   -1.623188
     31          1           0        2.585596    2.092824    0.103691
     32          6           0        3.196094    2.573637    2.647701
     33          1           0        2.180977    0.389031    3.903252
     34          1           0        0.969268   -1.480024    2.937297
     35          1           0       -0.139553   -0.215554    2.502008
     36          1           0       -3.764155   -0.480203   -0.997689
     37          1           0       -5.292260   -2.228554    0.990026
     38          1           0       -5.999450   -1.525733   -0.453866
     39          1           0       -2.720691   -2.621731   -1.789807
     40          1           0       -4.464860   -2.597879   -2.075859
     41          1           0       -3.798066   -3.535290   -0.729300
     42          1           0       -0.201729    2.340735    1.300315
     43          1           0        0.806962    3.646012    0.693613
     44          1           0        1.231536   -0.105829   -2.342819
     45          1           0        2.847144   -2.070122    1.604000
     46          1           0        2.096511   -2.708989    0.147652
     47          1           0        3.965866   -0.328134    0.456621
     48          1           0        5.597828    0.015940   -1.537593
     49          1           0        4.320395   -0.122349   -2.732677
     50          1           0        5.678880   -1.258994   -2.763320
     51          1           0        5.128656   -3.413556   -1.895810
     52          1           0        3.899869   -3.627745   -0.541718
     53          1           0       -2.851559    2.573764   -2.809530
     54          1           0       -1.390033    3.539829   -3.053793
     55          1           0       -1.311345    1.776592   -3.192872
     56          1           0       -1.687191    4.611394   -0.699372
     57          1           0       -1.999465    3.556235    0.688416
     58          1           0       -3.191659    3.689379   -0.607403
     59          1           0        3.480257    2.390226    3.686050
     60          1           0        4.113611    2.625606    2.049444
     61          1           0        2.737435    3.568190    2.598431
     62          6           0       -5.538861   -0.083952    1.085149
     63          1           0       -5.491175    0.794599    0.433272
     64          1           0       -4.833297    0.068210    1.905335
     65          1           0       -6.542532   -0.117871    1.518852
 ---------------------------------------------------------------------

 The electronic state is 1-A.
 Alpha  occ. eigenvalues --  -19.17801 -19.15004 -19.13478 -19.11019 -19.10665
 Alpha  occ. eigenvalues --  -10.26260 -10.26183 -10.26112 -10.25724 -10.25703
 Alpha  occ. eigenvalues --  -10.25684 -10.23942 -10.20717 -10.19895 -10.19756
 Alpha  occ. eigenvalues --  -10.19342 -10.19309 -10.18938 -10.18441 -10.18155
 Alpha  occ. eigenvalues --  -10.18067 -10.17850 -10.17677 -10.17430 -10.17241
 Alpha  occ. eigenvalues --  -10.17218 -10.17198 -10.17001 -10.15629 -10.15606
 Alpha  occ. eigenvalues --  -10.14723  -1.10200  -1.07492  -1.04884  -1.03784
 Alpha  occ. eigenvalues --   -1.03642  -0.88032  -0.84866  -0.83175  -0.82366
 Alpha  occ. eigenvalues --   -0.81067  -0.80312  -0.77833  -0.74931  -0.74095
 Alpha  occ. eigenvalues --   -0.73221  -0.72390  -0.71118  -0.69956  -0.69130
 Alpha  occ. eigenvalues --   -0.65734  -0.65026  -0.64350  -0.62724  -0.61757
 Alpha  occ. eigenvalues --   -0.60158  -0.59834  -0.57899  -0.56158  -0.54280
 Alpha  occ. eigenvalues --   -0.54125  -0.52795  -0.52044  -0.50853  -0.50493
 Alpha  occ. eigenvalues --   -0.49529  -0.48707  -0.48068  -0.47577  -0.46970
 Alpha  occ. eigenvalues --   -0.46082  -0.45303  -0.45182  -0.44425  -0.43999
 Alpha  occ. eigenvalues --   -0.43773  -0.43227  -0.43118  -0.42715  -0.42160
 Alpha  occ. eigenvalues --   -0.41820  -0.41761  -0.41367  -0.40977  -0.40824
 Alpha  occ. eigenvalues --   -0.40537  -0.40165  -0.39912  -0.39540  -0.39067
 Alpha  occ. eigenvalues --   -0.38600  -0.38491  -0.38267  -0.37886  -0.36978
 Alpha  occ. eigenvalues --   -0.36780  -0.36675  -0.36240  -0.35659  -0.35333
 Alpha  occ. eigenvalues --   -0.34912  -0.34182  -0.34028  -0.33517  -0.33400
 Alpha  occ. eigenvalues --   -0.32651  -0.32444  -0.31910  -0.29377  -0.28744
 Alpha  occ. eigenvalues --   -0.26833  -0.25865  -0.25428  -0.24626  -0.24073
 Alpha virt. eigenvalues --   -0.05498  -0.03156  -0.01707  -0.01175  -0.00603
 Alpha virt. eigenvalues --   -0.00024   0.00360   0.00551   0.01598   0.01727
 Alpha virt. eigenvalues --    0.02194   0.02293   0.02423   0.03345   0.03517

 Mulliken atomic charges:
              1
     1  C   -0.784966
     2  C    1.003668
     3  C    0.051857
     4  C    0.002721
     5  C    1.460661
     6  C   -1.202598
     7  C   -0.608099
     8  C    0.105098
     9  C    0.587733
    10  C   -0.629337
    11  C   -0.701633
    12  O   -0.173544
    13  C    0.309067
    14  C   -0.249774
    15  C   -1.095806
    16  O   -0.151015
    17  C   -0.227522
    18  C    0.772556
    19  O    0.195237
    20  C   -1.933064
    21  O   -0.142343
    22  C   -0.681295
    23  C   -0.023392
    24  O    0.086457
    25  C    0.941223
    26  C   -1.030824
    27  C   -1.227666
    28  C   -0.690361
    29  C   -0.599670
    30  H    0.235854
    31  H    0.265777
    32  C   -1.227091
    33  H    0.209730
    34  H    0.265241
    35  H    0.275780
    36  H    0.235329
    37  H    0.258432
    38  H    0.217345
    39  H    0.280556
    40  H    0.255546
    41  H    0.275898
    42  H    0.296293
    43  H    0.264566
    44  H    0.331897
    45  H    0.264063
    46  H    0.263559
    47  H    0.258950
    48  H    0.261437
    49  H    0.269969
    50  H    0.257706
    51  H    0.229779
    52  H    0.236611
    53  H    0.263415
    54  H    0.247352
    55  H    0.311783
    56  H    0.264212
    57  H    0.266513
    58  H    0.272347
    59  H    0.250425
    60  H    0.258607
    61  H    0.246987
    62  C   -0.957141
    63  H    0.227951
    64  H    0.257128
    65  H    0.243826
 Sum of Mulliken atomic charges =   0.00000

 Dipole moment (field-independent basis, Debye):
    X=              3.3103    Y=              6.0205    Z=             -1.1081  Tot=              6.9593
 Quadrupole moment (field-independent basis, Debye-Ang):
   XX=           -181.8707   YY=           -188.5700   ZZ=           -190.7596
   XY=             -6.4245   XZ=              8.4850   YZ=              3.8034

 Normal termination of Gaussian 09 at Tue Apr 13 22:38:03 2021.
