 Gaussian 09, Revision B.01,
 Gaussian 09:  EM64L-G09RevB.01 12-Aug-2010

 ----------------------------------------
 # opt b3lyp/6-311+g(d) geom=connectivity
 ----------------------------------------

 -------------------
 Title Card Required
 -------------------
 Symbolic Z-matrix:
 Charge =  0 Multiplicity = 1

 SCF Done:  E(RB3LYP) =  -1387.64876411     A.U. after   17 cycles
 SCF Done:  E(RB3LYP) =  -1387.64925866     A.U. after   14 cycles
 SCF Done:  E(RB3LYP) =  -1387.64860717     A.U. after   14 cycles
 SCF Done:  E(RB3LYP) =  -1387.64954901     A.U. after   14 cycles
 SCF Done:  E(RB3LYP) =  -1387.64973308     A.U. after   14 cycles
 SCF Done:  E(RB3LYP) =  -1387.65003202     A.U. after   14 cycles
 SCF Done:  E(RB3LYP) =  -1387.65045146     A.U. after   14 cycles
 SCF Done:  E(RB3LYP) =  -1387.65053084     A.U. after   15 cycles
 SCF Done:  E(RB3LYP) =  -1387.65054114     A.U. after   16 cycles
 SCF Done:  E(RB3LYP) =  -1387.65074467     A.U. after   13 cycles
 SCF Done:  E(RB3LYP) =  -1387.65081870     A.U. after   11 cycles
 SCF Done:  E(RB3LYP) =  -1387.65082035     A.U. after   12 cycles
 SCF Done:  E(RB3LYP) =  -1387.65082154     A.U. after   11 cycles
 SCF Done:  E(RB3LYP) =  -1387.65082131     A.U. after   12 cycles
 SCF Done:  E(RB3LYP) =  -1387.65082124     A.U. after   12 cycles
 SCF Done:  E(RB3LYP) =  -1387.65082055     A.U. after   11 cycles
 SCF Done:  E(RB3LYP) =  -1387.65081975     A.U. after   11 cycles
 SCF Done:  E(RB3LYP) =  -1387.65081997     A.U. after   10 cycles
 SCF Done:  E(RB3LYP) =  -1387.65081980     A.U. after   10 cycles
 SCF Done:  E(RB3LYP) =  -1387.65081971     A.U. after    9 cycles
 Optimization completed.
    -- Stationary point found.

                         Standard orientation:
 ---------------------------------------------------------------------
 Center     Atomic      Atomic             Coordinates (Angstroms)
 Number     Number       Type             X           Y           Z
 ---------------------------------------------------------------------
      1          6           0        2.173845    0.800694    2.701679
      2          6           0        2.600514    1.696880    1.808372
      3          6           0        1.993849    1.725245    0.425728
      4          6           0        1.471705    0.357752   -0.127226
      5          6           0        1.223857   -0.766655    0.934350
      6          6           0        1.107621   -0.211620    2.383750
      7          6           0        0.222138    0.744465   -0.985785
      8          6           0       -1.094774    0.416570   -0.306310
      9          6           0       -1.302842   -0.707318    0.409752
     10          6           0       -0.105459   -1.537451    0.693409
     11          6           0       -2.618168   -1.110933    1.021406
     12          8           0       -2.656471   -1.450462    2.186481
     13          6           0       -3.851623   -1.129672    0.121863
     14          6           0       -5.148611   -1.085771    0.943747
     15          6           0       -3.753714   -2.372915   -0.789989
     16          8           0       -0.166877   -2.739901    0.847348
     17          6           0        0.135652    2.283084   -1.044950
     18          6           0       -1.375961    2.552361   -1.211406
     19          8           0       -1.997172    1.384153   -0.524733
     20          6           0        0.799162    2.701432    0.277914
     21          8           0        0.219350    0.113720   -2.254575
     22          6           0        2.447752   -1.701268    0.781287
     23          6           0        3.321071   -1.082065   -0.323906
     24          8           0        2.427775   -0.198952   -1.039409
     25          6           0        3.952912   -2.063692   -1.281994
     26          6           0        3.042792   -2.810622   -2.221558
     27          6           0        5.272338   -2.260980   -1.250304
     28          6           0       -1.815237    2.515599   -2.674475
     29          6           0       -1.911098    3.792596   -0.508129
     30          1           0        0.697718    2.665474   -1.899676
     31          1           0        2.759853    2.040915   -0.292795
     32          6           0        3.648629    2.731900    2.115959
     33          1           0        2.587898    0.798532    3.707576
     34          1           0        1.154742   -1.056718    3.075080
     35          1           0        0.114721    0.228473    2.535332
     36          1           0       -3.802457   -0.242887   -0.519552
     37          1           0       -5.218950   -1.991736    1.553256
     38          1           0       -5.082017   -0.257402    1.657025
     39          1           0       -2.806835   -2.400270   -1.334123
     40          1           0       -4.558008   -2.372425   -1.528685
     41          1           0       -3.829022   -3.292320   -0.202792
     42          1           0        1.115720    3.746612    0.283641
     43          1           0        0.115084    2.569930    1.121695
     44          1           0        1.102596   -0.276605   -2.366745
     45          1           0        2.105350   -2.703167    0.522601
     46          1           0        3.014850   -1.785501    1.709086
     47          1           0        4.109467   -0.467789    0.125049
     48          1           0        2.191517   -3.258727   -1.700880
     49          1           0        2.629996   -2.140726   -2.982320
     50          1           0        3.580621   -3.606380   -2.740057
     51          1           0        5.754759   -3.000335   -1.881971
     52          1           0        5.919934   -1.696390   -0.586122
     53          1           0       -2.905759    2.533510   -2.740484
     54          1           0       -1.429647    3.391472   -3.204202
     55          1           0       -1.444747    1.621529   -3.175380
     56          1           0       -1.463793    4.691252   -0.941538
     57          1           0       -2.993812    3.862126   -0.634908
     58          1           0       -1.696014    3.782899    0.560679
     59          1           0        4.007964    2.649132    3.143918
     60          1           0        4.511481    2.635343    1.446318
     61          1           0        3.262401    3.748750    1.978690
     62          6           0       -6.414302   -0.921128    0.097836
     63          1           0       -7.296584   -0.822625    0.736772
     64          1           0       -6.364984   -0.025215   -0.530675
     65          1           0       -6.589150   -1.776124   -0.560812
 ---------------------------------------------------------------------

 The electronic state is 1-A.
 Alpha  occ. eigenvalues --  -19.17849 -19.14982 -19.13535 -19.11163 -19.10716
 Alpha  occ. eigenvalues --  -10.26369 -10.26200 -10.26151 -10.25732 -10.25725
 Alpha  occ. eigenvalues --  -10.25698 -10.23806 -10.20707 -10.19889 -10.19727
 Alpha  occ. eigenvalues --  -10.19337 -10.19247 -10.18933 -10.18463 -10.18197
 Alpha  occ. eigenvalues --  -10.18110 -10.17823 -10.17654 -10.17451 -10.17332
 Alpha  occ. eigenvalues --  -10.17262 -10.17065 -10.17061 -10.15660 -10.15655
 Alpha  occ. eigenvalues --  -10.15257  -1.10228  -1.07476  -1.04965  -1.03844
 Alpha  occ. eigenvalues --   -1.03677  -0.88070  -0.84911  -0.83191  -0.82376
 Alpha  occ. eigenvalues --   -0.81039  -0.80436  -0.77853  -0.74836  -0.74100
 Alpha  occ. eigenvalues --   -0.73252  -0.72321  -0.71147  -0.70109  -0.69181
 Alpha  occ. eigenvalues --   -0.65881  -0.65231  -0.64427  -0.63139  -0.61734
 Alpha  occ. eigenvalues --   -0.59971  -0.59350  -0.57887  -0.56093  -0.54374
 Alpha  occ. eigenvalues --   -0.54216  -0.52859  -0.52110  -0.51052  -0.50417
 Alpha  occ. eigenvalues --   -0.49220  -0.48314  -0.48099  -0.47571  -0.47007
 Alpha  occ. eigenvalues --   -0.46143  -0.45573  -0.45377  -0.45240  -0.44180
 Alpha  occ. eigenvalues --   -0.44052  -0.43625  -0.43271  -0.42242  -0.42186
 Alpha  occ. eigenvalues --   -0.41844  -0.41442  -0.41304  -0.41219  -0.40647
 Alpha  occ. eigenvalues --   -0.40231  -0.40115  -0.39891  -0.39499  -0.38755
 Alpha  occ. eigenvalues --   -0.38689  -0.38465  -0.38319  -0.37668  -0.37296
 Alpha  occ. eigenvalues --   -0.37008  -0.36748  -0.36217  -0.35654  -0.35519
 Alpha  occ. eigenvalues --   -0.34835  -0.34590  -0.34451  -0.34084  -0.33165
 Alpha  occ. eigenvalues --   -0.32624  -0.32238  -0.32105  -0.29493  -0.28872
 Alpha  occ. eigenvalues --   -0.26495  -0.25929  -0.25495  -0.24671  -0.24099
 Alpha virt. eigenvalues --   -0.05583  -0.03164  -0.01490  -0.01197  -0.00558
 Alpha virt. eigenvalues --   -0.00126   0.00273   0.00569   0.01578   0.01858
 Alpha virt. eigenvalues --    0.01896   0.02250   0.02976   0.03297   0.03488

 Mulliken atomic charges:
              1
     1  C   -0.812344
     2  C    0.954602
     3  C   -0.067510
     4  C    0.513478
     5  C    1.061203
     6  C   -1.226851
     7  C   -0.722233
     8  C    0.065251
     9  C    0.591245
    10  C   -0.467834
    11  C   -1.114109
    12  O   -0.161977
    13  C    0.675778
    14  C   -0.264183
    15  C   -1.145639
    16  O   -0.144382
    17  C   -0.795283
    18  C    1.079972
    19  O    0.166540
    20  C   -1.405499
    21  O   -0.062237
    22  C   -0.496536
    23  C   -0.284219
    24  O    0.040132
    25  C    0.781066
    26  C   -1.102797
    27  C   -0.993459
    28  C   -0.697011
    29  C   -0.601878
    30  H    0.242663
    31  H    0.260637
    32  C   -1.179444
    33  H    0.208655
    34  H    0.269502
    35  H    0.274095
    36  H    0.240030
    37  H    0.257415
    38  H    0.250140
    39  H    0.273567
    40  H    0.257028
    41  H    0.271674
    42  H    0.262623
    43  H    0.290017
    44  H    0.285570
    45  H    0.305813
    46  H    0.257944
    47  H    0.241729
    48  H    0.287027
    49  H    0.265460
    50  H    0.260035
    51  H    0.228696
    52  H    0.214274
    53  H    0.260445
    54  H    0.248337
    55  H    0.312755
    56  H    0.261610
    57  H    0.266010
    58  H    0.261212
    59  H    0.250719
    60  H    0.261110
    61  H    0.247755
    62  C   -0.980731
    63  H    0.247716
    64  H    0.233731
    65  H    0.240895
 Sum of Mulliken atomic charges =   0.00000

 Dipole moment (field-independent basis, Debye):
    X=              2.9928    Y=              5.4602    Z=             -1.9018  Tot=              6.5105
 Quadrupole moment (field-independent basis, Debye-Ang):
   XX=           -182.3866   YY=           -185.2814   ZZ=           -193.7086
   XY=             -5.5514   XZ=              9.8131   YZ=              5.9155

 Normal termination of Gaussian 09 at Tue Apr 13 22:26:26 2021.
