 Gaussian 09, Revision B.01,
 Gaussian 09:  EM64L-G09RevB.01 12-Aug-2010

 ----------------------------------------
 # opt b3lyp/6-311+g(d) geom=connectivity
 ----------------------------------------

 -------------------
 Title Card Required
 -------------------
 Symbolic Z-matrix:
 Charge =  0 Multiplicity = 1

 SCF Done:  E(RB3LYP) =  -1387.64852005     A.U. after   17 cycles
 SCF Done:  E(RB3LYP) =  -1387.64912196     A.U. after   14 cycles
 SCF Done:  E(RB3LYP) =  -1387.64908026     A.U. after   15 cycles
 SCF Done:  E(RB3LYP) =  -1387.64909164     A.U. after   14 cycles
 SCF Done:  E(RB3LYP) =  -1387.64921501     A.U. after   13 cycles
 SCF Done:  E(RB3LYP) =  -1387.64922494     A.U. after   13 cycles
 SCF Done:  E(RB3LYP) =  -1387.64923952     A.U. after   12 cycles
 SCF Done:  E(RB3LYP) =  -1387.64924284     A.U. after   12 cycles
 SCF Done:  E(RB3LYP) =  -1387.64924400     A.U. after   11 cycles
 SCF Done:  E(RB3LYP) =  -1387.64924480     A.U. after   11 cycles
 SCF Done:  E(RB3LYP) =  -1387.64924533     A.U. after   11 cycles
 SCF Done:  E(RB3LYP) =  -1387.64924552     A.U. after   10 cycles
 Optimization completed.
    -- Stationary point found.

                         Standard orientation:
 ---------------------------------------------------------------------
 Center     Atomic      Atomic             Coordinates (Angstroms)
 Number     Number       Type             X           Y           Z
 ---------------------------------------------------------------------
      1          6           0        1.497060    0.403967    3.190699
      2          6           0        1.387384    1.587540    2.584266
      3          6           0        1.508324    1.718703    1.082863
      4          6           0        1.498266    0.386100    0.270884
      5          6           0        1.247526   -0.948418    1.026650
      6          6           0        1.771926   -0.890604    2.482790
      7          6           0        0.472991    0.640913   -0.870308
      8          6           0       -0.940908    0.259642   -0.495728
      9          6           0       -1.278591   -0.734302    0.349293
     10          6           0       -0.218758   -1.459762    1.062375
     11          6           0       -2.723094   -1.050756    0.684011
     12          8           0       -3.133019   -0.875206    1.809230
     13          6           0       -3.584626   -1.631107   -0.435574
     14          6           0       -5.087572   -1.508278   -0.152245
     15          6           0       -3.164254   -3.102327   -0.647782
     16          8           0       -0.459880   -2.473784    1.695042
     17          6           0        0.285341    2.165090   -1.014705
     18          6           0       -1.124554    2.286348   -1.638150
     19          8           0       -1.821489    1.093040   -1.071098
     20          6           0        0.425992    2.633463    0.444729
     21          8           0        0.802879   -0.046670   -2.064189
     22          6           0        2.095682   -1.950018    0.200130
     23          6           0        3.311783   -1.121677   -0.191101
     24          8           0        2.791381    0.229627   -0.368125
     25          6           0        4.101202   -1.504333   -1.424049
     26          6           0        5.241234   -0.575425   -1.758417
     27          6           0        3.845278   -2.604598   -2.133922
     28          6           0       -1.121409    2.151371   -3.160018
     29          6           0       -1.939075    3.500401   -1.207819
     30          1           0        1.049782    2.606177   -1.658547
     31          1           0        2.486404    2.166287    0.864053
     32          6           0        1.201807    2.866031    3.360874
     33          1           0        1.431315    0.358565    4.275739
     34          1           0        2.855282   -1.070272    2.488025
     35          1           0        1.334343   -1.730328    3.026163
     36          1           0       -3.338985   -1.079009   -1.351495
     37          1           0       -5.622039   -2.105206   -0.900728
     38          1           0       -5.303036   -1.965222    0.818487
     39          1           0       -3.710455   -3.526584   -1.494464
     40          1           0       -3.386149   -3.702876    0.237976
     41          1           0       -2.096246   -3.198900   -0.854923
     42          1           0        0.683241    3.691173    0.523960
     43          1           0       -0.518559    2.495249    0.977095
     44          1           0        1.772719   -0.040910   -2.116431
     45          1           0        1.544049   -2.268411   -0.685976
     46          1           0        2.349849   -2.836090    0.783624
     47          1           0        4.018693   -1.078409    0.649428
     48          1           0        4.885437    0.445623   -1.921610
     49          1           0        5.958731   -0.526047   -0.931073
     50          1           0        5.776556   -0.903193   -2.651394
     51          1           0        4.453076   -2.870880   -2.993351
     52          1           0        3.039192   -3.287119   -1.890975
     53          1           0       -2.146533    2.074110   -3.530295
     54          1           0       -0.665927    3.037107   -3.612456
     55          1           0       -0.563387    1.272886   -3.480032
     56          1           0       -1.449803    4.417365   -1.548015
     57          1           0       -2.934276    3.464957   -1.656235
     58          1           0       -2.059879    3.556080   -0.126216
     59          1           0        1.207731    2.678574    4.436352
     60          1           0        2.002775    3.582664    3.140681
     61          1           0        0.258881    3.366753    3.117362
     62          6           0       -5.619742   -0.073117   -0.175647
     63          1           0       -6.699478   -0.055463   -0.000815
     64          1           0       -5.151928    0.539990    0.597502
     65          1           0       -5.435650    0.406219   -1.142882
 ---------------------------------------------------------------------

 The electronic state is 1-A.
 Alpha  occ. eigenvalues --  -19.17667 -19.14609 -19.13968 -19.10977 -19.10516
 Alpha  occ. eigenvalues --  -10.26328 -10.26295 -10.26020 -10.25881 -10.25364
 Alpha  occ. eigenvalues --  -10.25258 -10.24209 -10.20657 -10.19841 -10.19805
 Alpha  occ. eigenvalues --  -10.19425 -10.18759 -10.18419 -10.18410 -10.18248
 Alpha  occ. eigenvalues --  -10.17847 -10.17681 -10.17635 -10.17510 -10.17483
 Alpha  occ. eigenvalues --  -10.17077 -10.17071 -10.16879 -10.15772 -10.15677
 Alpha  occ. eigenvalues --  -10.14636  -1.10126  -1.06860  -1.04802  -1.03825
 Alpha  occ. eigenvalues --   -1.03678  -0.87662  -0.84705  -0.83361  -0.82401
 Alpha  occ. eigenvalues --   -0.81135  -0.80436  -0.77712  -0.75122  -0.74102
 Alpha  occ. eigenvalues --   -0.72946  -0.72207  -0.70848  -0.70267  -0.68697
 Alpha  occ. eigenvalues --   -0.65801  -0.65122  -0.64003  -0.62710  -0.61491
 Alpha  occ. eigenvalues --   -0.60376  -0.59959  -0.57894  -0.56141  -0.54458
 Alpha  occ. eigenvalues --   -0.53831  -0.53220  -0.51483  -0.51268  -0.50218
 Alpha  occ. eigenvalues --   -0.49527  -0.48908  -0.47635  -0.47299  -0.46695
 Alpha  occ. eigenvalues --   -0.46236  -0.45481  -0.44739  -0.44329  -0.44202
 Alpha  occ. eigenvalues --   -0.44050  -0.43055  -0.42814  -0.42486  -0.42123
 Alpha  occ. eigenvalues --   -0.42004  -0.41422  -0.41334  -0.41109  -0.40882
 Alpha  occ. eigenvalues --   -0.40148  -0.39908  -0.39287  -0.39081  -0.38697
 Alpha  occ. eigenvalues --   -0.38476  -0.38367  -0.38320  -0.37916  -0.37796
 Alpha  occ. eigenvalues --   -0.37243  -0.36773  -0.36163  -0.35699  -0.35347
 Alpha  occ. eigenvalues --   -0.34728  -0.34479  -0.33847  -0.33519  -0.32991
 Alpha  occ. eigenvalues --   -0.32813  -0.32237  -0.32009  -0.29342  -0.27770
 Alpha  occ. eigenvalues --   -0.27408  -0.26004  -0.25297  -0.24367  -0.24203
 Alpha virt. eigenvalues --   -0.05733  -0.02778  -0.01869  -0.01231  -0.00060
 Alpha virt. eigenvalues --    0.00057   0.00619   0.01011   0.01542   0.01761
 Alpha virt. eigenvalues --    0.02003   0.02294   0.03038   0.03277   0.03407

 Mulliken atomic charges:
              1
     1  C   -0.586461
     2  C    0.826814
     3  C   -0.365209
     4  C   -0.680967
     5  C    1.522613
     6  C   -0.793023
     7  C   -1.103485
     8  C    0.134548
     9  C    0.301206
    10  C   -0.493802
    11  C    0.255340
    12  O   -0.176743
    13  C   -0.021106
    14  C   -0.249541
    15  C   -1.057609
    16  O   -0.158063
    17  C   -0.026689
    18  C    0.519087
    19  O    0.160718
    20  C   -1.208385
    21  O    0.004499
    22  C   -0.600132
    23  C   -0.446440
    24  O    0.049800
    25  C    0.933541
    26  C   -1.021580
    27  C   -1.006955
    28  C   -0.737499
    29  C   -0.688962
    30  H    0.229725
    31  H    0.277652
    32  C   -1.101836
    33  H    0.205591
    34  H    0.238588
    35  H    0.279163
    36  H    0.242553
    37  H    0.219342
    38  H    0.259676
    39  H    0.256564
    40  H    0.281837
    41  H    0.280365
    42  H    0.270114
    43  H    0.283229
    44  H    0.286120
    45  H    0.256380
    46  H    0.284023
    47  H    0.235786
    48  H    0.268111
    49  H    0.263553
    50  H    0.255613
    51  H    0.230320
    52  H    0.239533
    53  H    0.263441
    54  H    0.249254
    55  H    0.308860
    56  H    0.263630
    57  H    0.271882
    58  H    0.264263
    59  H    0.257825
    60  H    0.255726
    61  H    0.256377
    62  C   -0.953643
    63  H    0.242399
    64  H    0.263014
    65  H    0.229456
 Sum of Mulliken atomic charges =   0.00000

 Dipole moment (field-independent basis, Debye):
    X=              3.9058    Y=              3.8841    Z=             -3.2766  Tot=              6.4092
 Quadrupole moment (field-independent basis, Debye-Ang):
   XX=           -186.3441   YY=           -181.9453   ZZ=           -191.9072
   XY=             -4.8697   XZ=              8.9215   YZ=              4.5954

 Normal termination of Gaussian 09 at Tue Apr 13 17:28:35 2021.
