 Gaussian 09, Revision B.01,
 Gaussian 09:  EM64L-G09RevB.01 12-Aug-2010

 ----------------------------------------
 # opt b3lyp/6-311+g(d) geom=connectivity
 ----------------------------------------

 -------------------
 Title Card Required
 -------------------
 Symbolic Z-matrix:
 Charge =  0 Multiplicity = 1

 SCF Done:  E(RB3LYP) =  -1387.64885941     A.U. after   16 cycles
 SCF Done:  E(RB3LYP) =  -1387.64951041     A.U. after   14 cycles
 SCF Done:  E(RB3LYP) =  -1387.64944406     A.U. after   13 cycles
 SCF Done:  E(RB3LYP) =  -1387.64947509     A.U. after   14 cycles
 SCF Done:  E(RB3LYP) =  -1387.64966116     A.U. after   14 cycles
 SCF Done:  E(RB3LYP) =  -1387.64977551     A.U. after   13 cycles
 SCF Done:  E(RB3LYP) =  -1387.64978823     A.U. after   12 cycles
 SCF Done:  E(RB3LYP) =  -1387.64980115     A.U. after   12 cycles
 SCF Done:  E(RB3LYP) =  -1387.64980308     A.U. after   12 cycles
 SCF Done:  E(RB3LYP) =  -1387.64980410     A.U. after   10 cycles
 SCF Done:  E(RB3LYP) =  -1387.64980197     A.U. after   12 cycles
 SCF Done:  E(RB3LYP) =  -1387.64978570     A.U. after   13 cycles
 SCF Done:  E(RB3LYP) =  -1387.64979946     A.U. after   13 cycles
 SCF Done:  E(RB3LYP) =  -1387.64980165     A.U. after   12 cycles
 SCF Done:  E(RB3LYP) =  -1387.64980047     A.U. after   11 cycles
 SCF Done:  E(RB3LYP) =  -1387.64980133     A.U. after   11 cycles
 SCF Done:  E(RB3LYP) =  -1387.64980190     A.U. after   10 cycles
 SCF Done:  E(RB3LYP) =  -1387.64980144     A.U. after   10 cycles
 SCF Done:  E(RB3LYP) =  -1387.64980145     A.U. after   10 cycles
 SCF Done:  E(RB3LYP) =  -1387.64980135     A.U. after    9 cycles
 Optimization completed.
    -- Stationary point found.

                         Standard orientation:
 ---------------------------------------------------------------------
 Center     Atomic      Atomic             Coordinates (Angstroms)
 Number     Number       Type             X           Y           Z
 ---------------------------------------------------------------------
      1          6           0        0.536203   -1.044194    3.059524
      2          6           0        0.739785    0.274475    3.013905
      3          6           0        1.334178    0.936534    1.790283
      4          6           0        1.416704    0.056106    0.503553
      5          6           0        0.806823   -1.370943    0.534099
      6          6           0        0.887380   -1.991826    1.949004
      7          6           0        0.809278    0.948873   -0.611256
      8          6           0       -0.690564    0.786361   -0.761304
      9          6           0       -1.371620   -0.366618   -0.540119
     10          6           0       -0.651882   -1.513144    0.019636
     11          6           0       -2.846704   -0.462021   -0.861792
     12          8           0       -3.258385   -0.043092   -1.923390
     13          6           0       -3.792976   -0.991745    0.217202
     14          6           0       -5.089706   -1.562355   -0.374584
     15          6           0       -4.082408    0.169632    1.193306
     16          8           0       -1.174437   -2.616580    0.102326
     17          6           0        0.857212    2.413603   -0.133778
     18          6           0       -0.286252    3.074603   -0.937005
     19          8           0       -1.254490    1.947677   -1.083569
     20          6           0        0.621199    2.255511    1.379111
     21          8           0        1.388681    0.703327   -1.878967
     22          6           0        1.741139   -2.142198   -0.434646
     23          6           0        3.104472   -1.523619   -0.154742
     24          8           0        2.814741   -0.129298    0.165838
     25          6           0        4.169077   -1.565126   -1.229550
     26          6           0        5.450748   -0.852206   -0.878786
     27          6           0        4.009710   -2.223942   -2.378586
     28          6           0        0.135659    3.514578   -2.337889
     29          6           0       -1.040547    4.193069   -0.228671
     30          1           0        1.822806    2.876249   -0.349513
     31          1           0        2.377872    1.185055    2.021264
     32          6           0        0.464010    1.165352    4.198100
     33          1           0        0.140298   -1.486675    3.971422
     34          1           0        1.902506   -2.372701    2.121926
     35          1           0        0.238620   -2.869669    1.964309
     36          1           0       -3.272394   -1.778729    0.767475
     37          1           0       -5.775586   -1.768355    0.456129
     38          1           0       -5.569303   -0.794888   -0.989847
     39          1           0       -3.164817    0.579195    1.625317
     40          1           0       -4.707301   -0.182213    2.018620
     41          1           0       -4.613253    0.982828    0.690135
     42          1           0        0.978701    3.112583    1.952638
     43          1           0       -0.448442    2.162828    1.583141
     44          1           0        2.325458    0.508666   -1.712390
     45          1           0        1.438155   -1.965222   -1.467835
     46          1           0        1.712119   -3.216453   -0.246968
     47          1           0        3.537196   -1.969518    0.751978
     48          1           0        5.271054    0.205834   -0.668978
     49          1           0        5.898306   -1.276874    0.027418
     50          1           0        6.183578   -0.925960   -1.684468
     51          1           0        4.806485   -2.265638   -3.114889
     52          1           0        3.097953   -2.751960   -2.632137
     53          1           0       -0.743573    3.808015   -2.915731
     54          1           0        0.802808    4.379111   -2.271912
     55          1           0        0.652630    2.715798   -2.866634
     56          1           0       -0.372053    5.040858   -0.055170
     57          1           0       -1.868579    4.539441   -0.850614
     58          1           0       -1.450222    3.877054    0.730610
     59          1           0        0.106987    0.587641    5.052993
     60          1           0        1.370365    1.698894    4.509989
     61          1           0       -0.286794    1.931000    3.977047
     62          6           0       -4.894131   -2.838181   -1.197972
     63          1           0       -5.855176   -3.223503   -1.551441
     64          1           0       -4.270207   -2.656585   -2.075897
     65          1           0       -4.415792   -3.625856   -0.608154
 ---------------------------------------------------------------------

 The electronic state is 1-A.
 Alpha  occ. eigenvalues --  -19.17781 -19.14703 -19.13930 -19.10643 -19.10476
 Alpha  occ. eigenvalues --  -10.26776 -10.26473 -10.25934 -10.25528 -10.25422
 Alpha  occ. eigenvalues --  -10.25376 -10.24291 -10.20813 -10.19883 -10.19794
 Alpha  occ. eigenvalues --  -10.19724 -10.19044 -10.18760 -10.18472 -10.18415
 Alpha  occ. eigenvalues --  -10.18007 -10.17835 -10.17611 -10.17567 -10.17517
 Alpha  occ. eigenvalues --  -10.17370 -10.16833 -10.16761 -10.16071 -10.15209
 Alpha  occ. eigenvalues --  -10.13852  -1.10471  -1.06971  -1.04486  -1.03790
 Alpha  occ. eigenvalues --   -1.03728  -0.87855  -0.84707  -0.83399  -0.82505
 Alpha  occ. eigenvalues --   -0.81300  -0.80103  -0.77723  -0.75274  -0.74265
 Alpha  occ. eigenvalues --   -0.72891  -0.72064  -0.70763  -0.70294  -0.68906
 Alpha  occ. eigenvalues --   -0.66259  -0.64698  -0.64369  -0.62551  -0.61680
 Alpha  occ. eigenvalues --   -0.60564  -0.59641  -0.58019  -0.55799  -0.54625
 Alpha  occ. eigenvalues --   -0.53809  -0.53055  -0.51900  -0.51387  -0.50322
 Alpha  occ. eigenvalues --   -0.49396  -0.48906  -0.47757  -0.47370  -0.46823
 Alpha  occ. eigenvalues --   -0.46295  -0.45545  -0.44860  -0.44557  -0.44252
 Alpha  occ. eigenvalues --   -0.43762  -0.42966  -0.42782  -0.42432  -0.42335
 Alpha  occ. eigenvalues --   -0.42036  -0.41682  -0.41417  -0.40873  -0.40622
 Alpha  occ. eigenvalues --   -0.40276  -0.40057  -0.39295  -0.39148  -0.38765
 Alpha  occ. eigenvalues --   -0.38565  -0.38358  -0.38244  -0.38011  -0.37869
 Alpha  occ. eigenvalues --   -0.37331  -0.36765  -0.36029  -0.35755  -0.35166
 Alpha  occ. eigenvalues --   -0.34754  -0.34566  -0.33926  -0.33214  -0.32966
 Alpha  occ. eigenvalues --   -0.32492  -0.32203  -0.31681  -0.29316  -0.27808
 Alpha  occ. eigenvalues --   -0.27412  -0.26124  -0.25426  -0.24684  -0.23936
 Alpha virt. eigenvalues --   -0.06168  -0.02946  -0.01890  -0.01403  -0.00304
 Alpha virt. eigenvalues --   -0.00052   0.00212   0.01198   0.01467   0.01811
 Alpha virt. eigenvalues --    0.02150   0.02291   0.03074   0.03088   0.03496

 Mulliken atomic charges:
              1
     1  C   -0.346232
     2  C    0.709078
     3  C   -0.181779
     4  C   -0.814778
     5  C    1.045426
     6  C   -0.801195
     7  C   -1.051199
     8  C    0.485788
     9  C    1.193729
    10  C   -0.911754
    11  C   -0.477382
    12  O   -0.178940
    13  C    0.357457
    14  C   -0.321314
    15  C   -1.115087
    16  O   -0.179352
    17  C   -0.173476
    18  C    0.671910
    19  O    0.172031
    20  C   -1.307198
    21  O   -0.015117
    22  C   -0.534040
    23  C   -0.428233
    24  O    0.049395
    25  C    0.912780
    26  C   -1.001569
    27  C   -1.011478
    28  C   -0.719469
    29  C   -0.744845
    30  H    0.238552
    31  H    0.273548
    32  C   -1.105669
    33  H    0.202807
    34  H    0.240538
    35  H    0.276122
    36  H    0.248288
    37  H    0.215819
    38  H    0.256150
    39  H    0.262434
    40  H    0.259966
    41  H    0.275941
    42  H    0.272725
    43  H    0.276833
    44  H    0.293049
    45  H    0.269899
    46  H    0.285667
    47  H    0.233828
    48  H    0.268212
    49  H    0.263082
    50  H    0.255302
    51  H    0.230734
    52  H    0.239739
    53  H    0.267158
    54  H    0.247190
    55  H    0.313214
    56  H    0.264083
    57  H    0.271846
    58  H    0.258283
    59  H    0.257546
    60  H    0.258121
    61  H    0.257768
    62  C   -0.950957
    63  H    0.237577
    64  H    0.257815
    65  H    0.243635
 Sum of Mulliken atomic charges =   0.00000

 Dipole moment (field-independent basis, Debye):
    X=              4.8519    Y=              3.2345    Z=              3.7204  Tot=              6.9169
 Quadrupole moment (field-independent basis, Debye-Ang):
   XX=           -188.9599   YY=           -180.9973   ZZ=           -191.2758
   XY=             -4.1930   XZ=            -10.9171   YZ=              0.7482

 Normal termination of Gaussian 09 at Wed Apr 14 00:58:35 2021.
