 Gaussian 09, Revision B.01,
 Gaussian 09:  EM64L-G09RevB.01 12-Aug-2010

 ----------------------------------------
 # opt b3lyp/6-311+g(d) geom=connectivity
 ----------------------------------------

 -------------------
 Title Card Required
 -------------------
 Symbolic Z-matrix:
 Charge =  0 Multiplicity = 1

 SCF Done:  E(RB3LYP) =  -1387.64813091     A.U. after   17 cycles
 SCF Done:  E(RB3LYP) =  -1387.64864766     A.U. after   14 cycles
 SCF Done:  E(RB3LYP) =  -1387.64854119     A.U. after   14 cycles
 SCF Done:  E(RB3LYP) =  -1387.64877438     A.U. after   14 cycles
 SCF Done:  E(RB3LYP) =  -1387.64881542     A.U. after   13 cycles
 SCF Done:  E(RB3LYP) =  -1387.64886953     A.U. after   12 cycles
 SCF Done:  E(RB3LYP) =  -1387.64889625     A.U. after   12 cycles
 SCF Done:  E(RB3LYP) =  -1387.64890031     A.U. after   11 cycles
 SCF Done:  E(RB3LYP) =  -1387.64890215     A.U. after   12 cycles
 SCF Done:  E(RB3LYP) =  -1387.64890327     A.U. after   11 cycles
 SCF Done:  E(RB3LYP) =  -1387.64890387     A.U. after   11 cycles
 SCF Done:  E(RB3LYP) =  -1387.64890397     A.U. after    9 cycles
 Optimization completed.
    -- Stationary point found.

                         Standard orientation:
 ---------------------------------------------------------------------
 Center     Atomic      Atomic             Coordinates (Angstroms)
 Number     Number       Type             X           Y           Z
 ---------------------------------------------------------------------
      1          6           0       -2.064650    1.181268   -2.745685
      2          6           0       -2.531186    1.976612   -1.780267
      3          6           0       -2.022102    1.821124   -0.368011
      4          6           0       -1.579010    0.381779    0.047072
      5          6           0       -1.266025   -0.612141   -1.113305
      6          6           0       -1.055164    0.097325   -2.485729
      7          6           0       -0.378438    0.628728    1.032422
      8          6           0        0.977235    0.343147    0.415852
      9          6           0        1.218890   -0.693503   -0.414084
     10          6           0        0.037731   -1.436090   -0.908370
     11          6           0        2.575874   -1.053244   -0.958611
     12          8           0        2.719996   -1.223655   -2.151845
     13          6           0        3.711668   -1.270057    0.040352
     14          6           0        5.097249   -1.086644   -0.592879
     15          6           0        3.539067   -2.687488    0.630578
     16          8           0        0.101273   -2.592155   -1.277860
     17          6           0       -0.263050    2.146971    1.278818
     18          6           0        1.237025    2.350367    1.581930
     19          8           0        1.881560    1.249788    0.808974
     20          6           0       -0.818430    2.734748   -0.029053
     21          8           0       -0.484159   -0.146235    2.210222
     22          6           0       -2.511865   -1.516292   -1.166510
     23          6           0       -3.172692   -1.436848    0.209623
     24          8           0       -2.639690   -0.215008    0.813899
     25          6           0       -3.009960   -2.583596    1.192964
     26          6           0       -3.849898   -2.443619    2.439815
     27          6           0       -2.218203   -3.636668    0.987951
     28          6           0        1.567902    2.132780    3.057792
     29          6           0        1.849753    3.645745    1.066609
     30          1           0       -0.878280    2.444909    2.130645
     31          1           0       -2.828781    2.072309    0.330252
     32          6           0       -3.531359    3.072971   -2.028237
     33          1           0       -2.407063    1.313621   -3.769694
     34          1           0       -0.038811    0.505358   -2.543781
     35          1           0       -1.099495   -0.667116   -3.266170
     36          1           0        3.585375   -0.550553    0.855984
     37          1           0        5.847640   -1.421304    0.133234
     38          1           0        5.182804   -1.753231   -1.456262
     39          1           0        2.551307   -2.827123    1.076201
     40          1           0        4.286910   -2.861259    1.409133
     41          1           0        3.668482   -3.449111   -0.142814
     42          1           0       -1.108575    3.783622    0.062635
     43          1           0       -0.077589    2.677108   -0.832292
     44          1           0       -1.400062   -0.475107    2.228535
     45          1           0       -2.238544   -2.525995   -1.464893
     46          1           0       -3.206745   -1.127347   -1.912774
     47          1           0       -4.247016   -1.250677    0.099275
     48          1           0       -3.665191   -3.257069    3.143546
     49          1           0       -3.657592   -1.496852    2.955032
     50          1           0       -4.918215   -2.446103    2.191955
     51          1           0       -2.145691   -4.426830    1.729717
     52          1           0       -1.606820   -3.755536    0.102306
     53          1           0        2.650871    2.110800    3.201293
     54          1           0        1.143372    1.198412    3.424395
     55          1           0        1.163822    2.953423    3.657500
     56          1           0        1.713214    3.764770   -0.008532
     57          1           0        2.921617    3.667466    1.275329
     58          1           0        1.392062    4.502369    1.568937
     59          1           0       -4.444381    2.915347   -1.442089
     60          1           0       -3.137318    4.052161   -1.731641
     61          1           0       -3.812212    3.132998   -3.081964
     62          6           0        5.409042    0.350600   -1.018089
     63          1           0        5.342180    1.042273   -0.171884
     64          1           0        4.719014    0.698286   -1.790474
     65          1           0        6.421458    0.426260   -1.425438
 ---------------------------------------------------------------------

 The electronic state is 1-A.
 Alpha  occ. eigenvalues --  -19.17812 -19.14662 -19.13284 -19.11069 -19.10700
 Alpha  occ. eigenvalues --  -10.26390 -10.26194 -10.26054 -10.25719 -10.25651
 Alpha  occ. eigenvalues --  -10.25395 -10.23802 -10.20755 -10.19720 -10.19477
 Alpha  occ. eigenvalues --  -10.19134 -10.18772 -10.18669 -10.18472 -10.18120
 Alpha  occ. eigenvalues --  -10.18005 -10.17655 -10.17532 -10.17511 -10.17284
 Alpha  occ. eigenvalues --  -10.17199 -10.17049 -10.16376 -10.15656 -10.15641
 Alpha  occ. eigenvalues --  -10.14710  -1.10191  -1.06811  -1.04931  -1.03822
 Alpha  occ. eigenvalues --   -1.03287  -0.87939  -0.84864  -0.83007  -0.82178
 Alpha  occ. eigenvalues --   -0.80857  -0.80325  -0.77820  -0.74927  -0.74012
 Alpha  occ. eigenvalues --   -0.73138  -0.72365  -0.71041  -0.69575  -0.68941
 Alpha  occ. eigenvalues --   -0.65739  -0.65053  -0.64067  -0.62759  -0.61687
 Alpha  occ. eigenvalues --   -0.60171  -0.59785  -0.57662  -0.55657  -0.54290
 Alpha  occ. eigenvalues --   -0.53958  -0.52906  -0.51653  -0.50902  -0.50046
 Alpha  occ. eigenvalues --   -0.49375  -0.48563  -0.48132  -0.47493  -0.47026
 Alpha  occ. eigenvalues --   -0.45897  -0.45330  -0.45149  -0.44258  -0.43967
 Alpha  occ. eigenvalues --   -0.43467  -0.43143  -0.42888  -0.42642  -0.42038
 Alpha  occ. eigenvalues --   -0.41804  -0.41679  -0.41268  -0.40962  -0.40821
 Alpha  occ. eigenvalues --   -0.40271  -0.39995  -0.39767  -0.39426  -0.38978
 Alpha  occ. eigenvalues --   -0.38534  -0.38454  -0.38207  -0.37460  -0.36963
 Alpha  occ. eigenvalues --   -0.36767  -0.36360  -0.36234  -0.35657  -0.35559
 Alpha  occ. eigenvalues --   -0.34645  -0.34315  -0.34005  -0.33500  -0.33288
 Alpha  occ. eigenvalues --   -0.32662  -0.32436  -0.31911  -0.28757  -0.28466
 Alpha  occ. eigenvalues --   -0.26431  -0.25912  -0.25394  -0.24616  -0.24081
 Alpha virt. eigenvalues --   -0.05590  -0.03214  -0.01466  -0.01104  -0.00378
 Alpha virt. eigenvalues --    0.00063   0.00403   0.00518   0.01699   0.01901
 Alpha virt. eigenvalues --    0.02100   0.02338   0.02544   0.03298   0.03617

 Mulliken atomic charges:
              1
     1  C   -0.731186
     2  C    0.967685
     3  C   -0.069359
     4  C    0.155209
     5  C    1.114568
     6  C   -1.116051
     7  C   -1.229387
     8  C   -0.014943
     9  C    0.558793
    10  C   -0.394258
    11  C   -0.631870
    12  O   -0.171413
    13  C    0.276520
    14  C   -0.257674
    15  C   -1.082933
    16  O   -0.179328
    17  C   -0.769900
    18  C    1.018221
    19  O    0.192711
    20  C   -1.165558
    21  O   -0.003895
    22  C   -0.426565
    23  C   -0.082445
    24  O   -0.036686
    25  C    0.954339
    26  C   -1.064681
    27  C   -1.040187
    28  C   -0.699102
    29  C   -0.602222
    30  H    0.240040
    31  H    0.257580
    32  C   -1.169198
    33  H    0.210024
    34  H    0.275987
    35  H    0.264253
    36  H    0.234697
    37  H    0.218024
    38  H    0.258801
    39  H    0.285497
    40  H    0.256031
    41  H    0.274151
    42  H    0.259284
    43  H    0.287984
    44  H    0.256830
    45  H    0.270639
    46  H    0.256209
    47  H    0.215068
    48  H    0.250854
    49  H    0.251103
    50  H    0.261498
    51  H    0.214883
    52  H    0.251413
    53  H    0.261422
    54  H    0.312244
    55  H    0.246103
    56  H    0.263050
    57  H    0.270013
    58  H    0.263028
    59  H    0.261486
    60  H    0.244337
    61  H    0.251660
    62  C   -0.954335
    63  H    0.228275
    64  H    0.259246
    65  H    0.243415
 Sum of Mulliken atomic charges =   0.00000

 Dipole moment (field-independent basis, Debye):
    X=             -3.2089    Y=              4.8839    Z=              2.6710  Tot=              6.4252
 Quadrupole moment (field-independent basis, Debye-Ang):
   XX=           -183.6037   YY=           -184.1809   ZZ=           -192.2300
   XY=              3.2318   XZ=              9.9432   YZ=             -4.3103

 Normal termination of Gaussian 09 at Tue Apr 13 20:35:42 2021.
