 Gaussian 09, Revision B.01,
 Gaussian 09:  EM64L-G09RevB.01 12-Aug-2010

 ----------------------------------------
 # opt b3lyp/6-311+g(d) geom=connectivity
 ----------------------------------------

 -------------------
 Title Card Required
 -------------------
 Symbolic Z-matrix:
 Charge =  0 Multiplicity = 1

 SCF Done:  E(RB3LYP) =  -1387.64821697     A.U. after   16 cycles
 SCF Done:  E(RB3LYP) =  -1387.64866368     A.U. after   13 cycles
 SCF Done:  E(RB3LYP) =  -1387.64793922     A.U. after   15 cycles
 SCF Done:  E(RB3LYP) =  -1387.64882415     A.U. after   14 cycles
 SCF Done:  E(RB3LYP) =  -1387.64890943     A.U. after   13 cycles
 SCF Done:  E(RB3LYP) =  -1387.64900803     A.U. after   14 cycles
 SCF Done:  E(RB3LYP) =  -1387.64914187     A.U. after   15 cycles
 SCF Done:  E(RB3LYP) =  -1387.64898409     A.U. after   15 cycles
 SCF Done:  E(RB3LYP) =  -1387.64916191     A.U. after   16 cycles
 SCF Done:  E(RB3LYP) =  -1387.64924901     A.U. after   13 cycles
 SCF Done:  E(RB3LYP) =  -1387.64932341     A.U. after   13 cycles
 SCF Done:  E(RB3LYP) =  -1387.64936884     A.U. after   15 cycles
 SCF Done:  E(RB3LYP) =  -1387.64938067     A.U. after   13 cycles
 SCF Done:  E(RB3LYP) =  -1387.64938394     A.U. after   12 cycles
 SCF Done:  E(RB3LYP) =  -1387.64938638     A.U. after   11 cycles
 SCF Done:  E(RB3LYP) =  -1387.64938789     A.U. after   12 cycles
 SCF Done:  E(RB3LYP) =  -1387.64938736     A.U. after   12 cycles
 SCF Done:  E(RB3LYP) =  -1387.64938883     A.U. after   12 cycles
 SCF Done:  E(RB3LYP) =  -1387.64938895     A.U. after   10 cycles
 SCF Done:  E(RB3LYP) =  -1387.64938910     A.U. after   10 cycles
 Optimization completed.
    -- Stationary point found.

                         Standard orientation:
 ---------------------------------------------------------------------
 Center     Atomic      Atomic             Coordinates (Angstroms)
 Number     Number       Type             X           Y           Z
 ---------------------------------------------------------------------
      1          6           0        2.100860    0.162585    2.786307
      2          6           0        2.678530    1.100178    2.031527
      3          6           0        2.118377    1.417680    0.666046
      4          6           0        1.384384    0.248181   -0.069610
      5          6           0        0.915757   -0.954265    0.816210
      6          6           0        0.889742   -0.605927    2.334204
      7          6           0        0.241886    0.949979   -0.861677
      8          6           0       -1.123326    0.779004   -0.210796
      9          6           0       -1.555325   -0.401342    0.307565
     10          6           0       -0.532707   -1.443848    0.505048
     11          6           0       -2.993966   -0.600130    0.696390
     12          8           0       -3.605525    0.299735    1.240110
     13          6           0       -3.685833   -1.930209    0.376368
     14          6           0       -5.011193   -1.672454   -0.366213
     15          6           0       -3.925981   -2.700390    1.688013
     16          8           0       -0.790141   -2.631659    0.612881
     17          6           0        0.423855    2.474395   -0.727849
     18          6           0       -1.015988    3.015846   -0.854377
     19          8           0       -1.835608    1.892874   -0.314637
     20          6           0        1.117271    2.600477    0.640636
     21          8           0        0.141664    0.489951   -2.197086
     22          6           0        1.944650   -2.071992    0.498394
     23          6           0        2.975010   -1.428981   -0.429116
     24          8           0        2.258950   -0.331150   -1.047801
     25          6           0        3.623581   -2.262558   -1.510551
     26          6           0        4.479630   -1.492514   -2.484059
     27          6           0        3.506889   -3.590048   -1.561333
     28          6           0       -1.434231    3.235847   -2.307306
     29          6           0       -1.351708    4.228607    0.003464
     30          1           0        1.061860    2.857774   -1.526864
     31          1           0        2.946907    1.685152   -0.001069
     32          6           0        3.868137    1.902738    2.484326
     33          1           0        2.488903   -0.047475    3.780584
     34          1           0        0.791394   -1.540010    2.893067
     35          1           0       -0.015588   -0.030163    2.564104
     36          1           0       -3.027429   -2.528292   -0.256422
     37          1           0       -5.647980   -1.036949    0.256716
     38          1           0       -5.529075   -2.633957   -0.463498
     39          1           0       -2.985838   -2.933243    2.192166
     40          1           0       -4.433755   -3.646739    1.480369
     41          1           0       -4.552789   -2.117865    2.368328
     42          1           0        0.397742    2.489217    1.457316
     43          1           0        1.611426    3.564220    0.780087
     44          1           0        0.921267   -0.069234   -2.355279
     45          1           0        2.413428   -2.463614    1.402336
     46          1           0        1.424959   -2.898446    0.015901
     47          1           0        3.782450   -0.983796    0.172022
     48          1           0        5.265481   -0.934866   -1.961009
     49          1           0        3.890102   -0.754728   -3.034966
     50          1           0        4.959149   -2.157255   -3.204920
     51          1           0        4.026233   -4.167960   -2.319601
     52          1           0        2.906178   -4.155398   -0.858843
     53          1           0       -2.506428    3.437636   -2.361808
     54          1           0       -0.905030    4.098681   -2.721956
     55          1           0       -1.207235    2.365182   -2.922106
     56          1           0       -0.753709    5.087728   -0.312916
     57          1           0       -1.164631    4.047609    1.062093
     58          1           0       -2.405771    4.489548   -0.110479
     59          1           0        4.191368    1.615276    3.487071
     60          1           0        4.718166    1.772611    1.803987
     61          1           0        3.645651    2.976060    2.500520
     62          6           0       -4.845306   -1.044378   -1.752692
     63          1           0       -4.208098   -1.658026   -2.397692
     64          1           0       -4.398964   -0.047268   -1.696800
     65          1           0       -5.813052   -0.938301   -2.251691
 ---------------------------------------------------------------------

 The electronic state is 1-A.
 Alpha  occ. eigenvalues --  -19.17795 -19.15084 -19.13494 -19.10948 -19.10138
 Alpha  occ. eigenvalues --  -10.26563 -10.26473 -10.25865 -10.25721 -10.25647
 Alpha  occ. eigenvalues --  -10.25333 -10.24054 -10.20903 -10.19826 -10.19799
 Alpha  occ. eigenvalues --  -10.19428 -10.19317 -10.19099 -10.18793 -10.18213
 Alpha  occ. eigenvalues --  -10.17953 -10.17830 -10.17646 -10.17611 -10.17276
 Alpha  occ. eigenvalues --  -10.17121 -10.16941 -10.16405 -10.15430 -10.14751
 Alpha  occ. eigenvalues --  -10.14545  -1.10491  -1.07581  -1.04626  -1.03709
 Alpha  occ. eigenvalues --   -1.03534  -0.88117  -0.84754  -0.83206  -0.82412
 Alpha  occ. eigenvalues --   -0.81082  -0.79753  -0.77780  -0.75033  -0.74085
 Alpha  occ. eigenvalues --   -0.73140  -0.72035  -0.70876  -0.70026  -0.69182
 Alpha  occ. eigenvalues --   -0.65962  -0.64923  -0.64239  -0.62421  -0.61787
 Alpha  occ. eigenvalues --   -0.60216  -0.59610  -0.57912  -0.55831  -0.54540
 Alpha  occ. eigenvalues --   -0.53746  -0.52879  -0.52121  -0.51037  -0.50487
 Alpha  occ. eigenvalues --   -0.49254  -0.48597  -0.47943  -0.47572  -0.46948
 Alpha  occ. eigenvalues --   -0.46261  -0.45362  -0.45103  -0.44448  -0.43868
 Alpha  occ. eigenvalues --   -0.43310  -0.43286  -0.42793  -0.42565  -0.42114
 Alpha  occ. eigenvalues --   -0.41735  -0.41480  -0.41243  -0.40833  -0.40701
 Alpha  occ. eigenvalues --   -0.40632  -0.40324  -0.39912  -0.39401  -0.39082
 Alpha  occ. eigenvalues --   -0.38541  -0.38276  -0.38164  -0.37890  -0.37177
 Alpha  occ. eigenvalues --   -0.36800  -0.36230  -0.35602  -0.35514  -0.35189
 Alpha  occ. eigenvalues --   -0.34804  -0.34245  -0.34012  -0.33550  -0.33270
 Alpha  occ. eigenvalues --   -0.32494  -0.32075  -0.31499  -0.29449  -0.28745
 Alpha  occ. eigenvalues --   -0.26946  -0.25761  -0.25463  -0.24584  -0.23693
 Alpha virt. eigenvalues --   -0.05999  -0.02547  -0.01763  -0.01130  -0.00729
 Alpha virt. eigenvalues --    0.00221   0.00420   0.00597   0.01700   0.01817
 Alpha virt. eigenvalues --    0.02028   0.02254   0.02720   0.03302   0.03511

 Mulliken atomic charges:
              1
     1  C   -0.665419
     2  C    1.072780
     3  C   -0.031346
     4  C   -0.011263
     5  C    1.340174
     6  C   -1.294692
     7  C   -0.765180
     8  C    0.240800
     9  C    0.786315
    10  C   -1.129200
    11  C   -0.331035
    12  O   -0.183972
    13  C    0.406600
    14  C   -0.335718
    15  C   -1.113169
    16  O   -0.167759
    17  C   -0.221770
    18  C    0.783074
    19  O    0.213962
    20  C   -1.725825
    21  O   -0.145728
    22  C   -0.494831
    23  C   -0.203250
    24  O    0.070633
    25  C    1.043401
    26  C   -1.022424
    27  C   -1.298959
    28  C   -0.811676
    29  C   -0.616102
    30  H    0.237376
    31  H    0.268019
    32  C   -1.228866
    33  H    0.208417
    34  H    0.259887
    35  H    0.260534
    36  H    0.235549
    37  H    0.263093
    38  H    0.217334
    39  H    0.277696
    40  H    0.234056
    41  H    0.266999
    42  H    0.294334
    43  H    0.263400
    44  H    0.330545
    45  H    0.264574
    46  H    0.257403
    47  H    0.261791
    48  H    0.261912
    49  H    0.270609
    50  H    0.257610
    51  H    0.230434
    52  H    0.234597
    53  H    0.265388
    54  H    0.249033
    55  H    0.310659
    56  H    0.260684
    57  H    0.271095
    58  H    0.274024
    59  H    0.250282
    60  H    0.258750
    61  H    0.247707
    62  C   -0.950087
    63  H    0.240989
    64  H    0.260156
    65  H    0.245595
 Sum of Mulliken atomic charges =   0.00000

 Dipole moment (field-independent basis, Debye):
    X=              5.4864    Y=              3.0225    Z=             -0.2908  Tot=              6.2706
 Quadrupole moment (field-independent basis, Debye-Ang):
   XX=           -191.6770   YY=           -180.0087   ZZ=           -188.5020
   XY=              2.0126   XZ=              6.2452   YZ=             -1.1599

 Normal termination of Gaussian 09 at Tue Apr 13 20:20:31 2021.
