 Gaussian 09, Revision B.01,
 Gaussian 09:  EM64L-G09RevB.01 12-Aug-2010

 ----------------------------------------
 # opt b3lyp/6-311+g(d) geom=connectivity
 ----------------------------------------

 -------------------
 Title Card Required
 -------------------
 Symbolic Z-matrix:
 Charge =  0 Multiplicity = 1

 SCF Done:  E(RB3LYP) =  -1387.64954158     A.U. after   16 cycles
 SCF Done:  E(RB3LYP) =  -1387.64999844     A.U. after   14 cycles
 SCF Done:  E(RB3LYP) =  -1387.64701540     A.U. after   17 cycles
 SCF Done:  E(RB3LYP) =  -1387.65016533     A.U. after   16 cycles
 SCF Done:  E(RB3LYP) =  -1387.65021955     A.U. after   13 cycles
 SCF Done:  E(RB3LYP) =  -1387.65022562     A.U. after   14 cycles
 SCF Done:  E(RB3LYP) =  -1387.65030687     A.U. after   12 cycles
 SCF Done:  E(RB3LYP) =  -1387.65031394     A.U. after   12 cycles
 SCF Done:  E(RB3LYP) =  -1387.65031775     A.U. after   11 cycles
 SCF Done:  E(RB3LYP) =  -1387.65031823     A.U. after   11 cycles
 SCF Done:  E(RB3LYP) =  -1387.65031853     A.U. after   10 cycles
 SCF Done:  E(RB3LYP) =  -1387.65031855     A.U. after    9 cycles
 Optimization completed.
    -- Stationary point found.

                         Standard orientation:
 ---------------------------------------------------------------------
 Center     Atomic      Atomic             Coordinates (Angstroms)
 Number     Number       Type             X           Y           Z
 ---------------------------------------------------------------------
      1          6           0        1.525779    0.039326    3.214675
      2          6           0        1.623125    1.263726    2.691975
      3          6           0        1.756772    1.474147    1.200225
      4          6           0        1.492714    0.224448    0.303744
      5          6           0        0.993856   -1.082521    0.977554
      6          6           0        1.553866   -1.228964    2.411025
      7          6           0        0.534039    0.743237   -0.800382
      8          6           0       -0.929346    0.616167   -0.432882
      9          6           0       -1.448491   -0.372260    0.333446
     10          6           0       -0.544279   -1.292230    1.023768
     11          6           0       -2.936027   -0.473861    0.584076
     12          8           0       -3.553028    0.489128    0.989153
     13          6           0       -3.645315   -1.795014    0.272557
     14          6           0       -4.661856   -1.579063   -0.870695
     15          6           0       -4.338809   -2.326653    1.536821
     16          8           0       -0.977297   -2.225871    1.686396
     17          6           0        0.637581    2.280704   -0.844819
     18          6           0       -0.723040    2.702209   -1.448381
     19          8           0       -1.629045    1.614684   -0.968518
     20          6           0        0.862406    2.615898    0.640959
     21          8           0        0.719137    0.085554   -2.041476
     22          6           0        1.606250   -2.169304    0.055263
     23          6           0        2.961056   -1.576344   -0.312869
     24          8           0        2.731893   -0.136146   -0.358580
     25          6           0        3.630356   -2.005113   -1.601209
     26          6           0        4.935385   -1.309494   -1.896045
     27          6           0        3.135010   -2.958674   -2.391781
     28          6           0       -0.734416    2.684799   -2.975462
     29          6           0       -1.310964    4.004036   -0.918212
     30          1           0        1.473372    2.610753   -1.466147
     31          1           0        2.800452    1.744910    0.994485
     32          6           0        1.674798    2.497953    3.555551
     33          1           0        1.464298   -0.070496    4.295399
     34          1           0        2.588097   -1.594352    2.364880
     35          1           0        0.984762   -2.015779    2.909402
     36          1           0       -2.897902   -2.524812   -0.051128
     37          1           0       -5.224899   -2.511610   -0.992522
     38          1           0       -5.384236   -0.819875   -0.553654
     39          1           0       -4.863050   -3.260807    1.314840
     40          1           0       -5.069442   -1.604309    1.908784
     41          1           0       -3.612684   -2.525105    2.326794
     42          1           0        1.312609    3.599323    0.786854
     43          1           0       -0.091764    2.620377    1.173955
     44          1           0        1.672051   -0.085007   -2.116307
     45          1           0        0.985408   -2.299478   -0.832598
     46          1           0        1.685220   -3.130061    0.566372
     47          1           0        3.677476   -1.753148    0.501402
     48          1           0        4.801343   -0.225998   -1.957367
     49          1           0        5.661659   -1.487576   -1.094419
     50          1           0        5.373354   -1.658768   -2.832935
     51          1           0        3.657979   -3.267856   -3.291598
     52          1           0        2.206479   -3.475369   -2.178985
     53          1           0       -1.754580    2.819450   -3.342545
     54          1           0       -0.126566    3.508090   -3.362066
     55          1           0       -0.339438    1.748050   -3.365054
     56          1           0       -0.661693    4.842592   -1.185527
     57          1           0       -2.292359    4.181948   -1.362767
     58          1           0       -1.432542    3.991046    0.164351
     59          1           0        1.652322    2.239122    4.615954
     60          1           0        2.590620    3.072608    3.369799
     61          1           0        0.836302    3.174461    3.361170
     62          6           0       -4.042128   -1.181180   -2.213125
     63          1           0       -4.810498   -1.104168   -2.987976
     64          1           0       -3.537060   -0.212798   -2.159977
     65          1           0       -3.308302   -1.919993   -2.551330
 ---------------------------------------------------------------------

 The electronic state is 1-A.
 Alpha  occ. eigenvalues --  -19.17612 -19.14653 -19.13989 -19.10682 -19.10634
 Alpha  occ. eigenvalues --  -10.26653 -10.26465 -10.25853 -10.25646 -10.25346
 Alpha  occ. eigenvalues --  -10.25283 -10.24321 -10.20757 -10.19886 -10.19790
 Alpha  occ. eigenvalues --  -10.19491 -10.18733 -10.18614 -10.18445 -10.18390
 Alpha  occ. eigenvalues --  -10.17720 -10.17708 -10.17572 -10.17498 -10.17152
 Alpha  occ. eigenvalues --  -10.17001 -10.16897 -10.16813 -10.15935 -10.14893
 Alpha  occ. eigenvalues --  -10.14457  -1.10320  -1.06907  -1.04534  -1.03872
 Alpha  occ. eigenvalues --   -1.03717  -0.87730  -0.84613  -0.83379  -0.82419
 Alpha  occ. eigenvalues --   -0.81200  -0.80014  -0.77671  -0.75195  -0.74105
 Alpha  occ. eigenvalues --   -0.72626  -0.72152  -0.70689  -0.70342  -0.68742
 Alpha  occ. eigenvalues --   -0.66121  -0.64683  -0.64159  -0.62392  -0.61539
 Alpha  occ. eigenvalues --   -0.60520  -0.59773  -0.57978  -0.55773  -0.54618
 Alpha  occ. eigenvalues --   -0.53648  -0.53239  -0.51676  -0.51285  -0.50253
 Alpha  occ. eigenvalues --   -0.49399  -0.48886  -0.47677  -0.47092  -0.46764
 Alpha  occ. eigenvalues --   -0.46244  -0.45469  -0.44796  -0.44365  -0.44208
 Alpha  occ. eigenvalues --   -0.43521  -0.43053  -0.42773  -0.42433  -0.42172
 Alpha  occ. eigenvalues --   -0.41878  -0.41371  -0.41219  -0.40992  -0.40700
 Alpha  occ. eigenvalues --   -0.40077  -0.39943  -0.39286  -0.39025  -0.38926
 Alpha  occ. eigenvalues --   -0.38496  -0.38404  -0.38221  -0.37827  -0.37626
 Alpha  occ. eigenvalues --   -0.37330  -0.36036  -0.35984  -0.35511  -0.35240
 Alpha  occ. eigenvalues --   -0.34662  -0.34521  -0.33899  -0.33534  -0.33058
 Alpha  occ. eigenvalues --   -0.32484  -0.32188  -0.31547  -0.29375  -0.27802
 Alpha  occ. eigenvalues --   -0.27449  -0.26085  -0.25225  -0.24518  -0.24070
 Alpha virt. eigenvalues --   -0.05994  -0.02691  -0.01954  -0.01151  -0.00100
 Alpha virt. eigenvalues --    0.00236   0.00521   0.01057   0.01559   0.01927
 Alpha virt. eigenvalues --    0.02090   0.02332   0.02709   0.03394   0.03502

 Mulliken atomic charges:
              1
     1  C   -0.285441
     2  C    0.685409
     3  C   -0.169753
     4  C   -0.815108
     5  C    1.183778
     6  C   -0.759051
     7  C   -1.037538
     8  C    0.304563
     9  C    0.627397
    10  C   -0.632264
    11  C    0.113317
    12  O   -0.184234
    13  C    0.242570
    14  C   -0.374396
    15  C   -1.110504
    16  O   -0.194181
    17  C   -0.174059
    18  C    0.588908
    19  O    0.147346
    20  C   -1.259507
    21  O   -0.011114
    22  C   -0.498214
    23  C   -0.585868
    24  O    0.036210
    25  C    0.962454
    26  C   -1.006688
    27  C   -1.007533
    28  C   -0.827175
    29  C   -0.682920
    30  H    0.235187
    31  H    0.272922
    32  C   -1.051051
    33  H    0.203478
    34  H    0.238143
    35  H    0.284671
    36  H    0.230507
    37  H    0.222368
    38  H    0.264722
    39  H    0.232400
    40  H    0.269919
    41  H    0.277033
    42  H    0.268752
    43  H    0.282124
    44  H    0.288604
    45  H    0.248036
    46  H    0.276381
    47  H    0.231578
    48  H    0.268369
    49  H    0.263771
    50  H    0.253960
    51  H    0.230260
    52  H    0.236569
    53  H    0.265046
    54  H    0.254202
    55  H    0.311111
    56  H    0.259962
    57  H    0.269730
    58  H    0.265064
    59  H    0.257171
    60  H    0.254270
    61  H    0.261215
    62  C   -0.964166
    63  H    0.247064
    64  H    0.271607
    65  H    0.242620
 Sum of Mulliken atomic charges =   0.00000

 Dipole moment (field-independent basis, Debye):
    X=              5.1455    Y=              2.0428    Z=             -1.9957  Tot=              5.8850
 Quadrupole moment (field-independent basis, Debye-Ang):
   XX=           -192.8033   YY=           -178.4006   ZZ=           -188.3446
   XY=              0.9157   XZ=              5.5168   YZ=              1.5005

 Normal termination of Gaussian 09 at Tue Apr 13 17:53:45 2021.
