 Gaussian 09, Revision B.01,
 Gaussian 09:  EM64L-G09RevB.01 12-Aug-2010

 ----------------------------------------
 # opt b3lyp/6-311+g(d) geom=connectivity
 ----------------------------------------

 -------------------
 Title Card Required
 -------------------
 Symbolic Z-matrix:
 Charge =  0 Multiplicity = 1

 SCF Done:  E(RB3LYP) =  -1387.64888581     A.U. after   17 cycles
 SCF Done:  E(RB3LYP) =  -1387.64929743     A.U. after   15 cycles
 SCF Done:  E(RB3LYP) =  -1387.64642493     A.U. after   17 cycles
 SCF Done:  E(RB3LYP) =  -1387.64947662     A.U. after   16 cycles
 SCF Done:  E(RB3LYP) =  -1387.64954846     A.U. after   14 cycles
 SCF Done:  E(RB3LYP) =  -1387.64956107     A.U. after   14 cycles
 SCF Done:  E(RB3LYP) =  -1387.64964080     A.U. after   13 cycles
 SCF Done:  E(RB3LYP) =  -1387.64964846     A.U. after   12 cycles
 SCF Done:  E(RB3LYP) =  -1387.64965237     A.U. after   12 cycles
 SCF Done:  E(RB3LYP) =  -1387.64965366     A.U. after   11 cycles
 SCF Done:  E(RB3LYP) =  -1387.64965462     A.U. after   11 cycles
 SCF Done:  E(RB3LYP) =  -1387.64965528     A.U. after   10 cycles
 SCF Done:  E(RB3LYP) =  -1387.64965556     A.U. after    9 cycles
 SCF Done:  E(RB3LYP) =  -1387.64965569     A.U. after    9 cycles
 Optimization completed.
    -- Stationary point found.

                         Standard orientation:
 ---------------------------------------------------------------------
 Center     Atomic      Atomic             Coordinates (Angstroms)
 Number     Number       Type             X           Y           Z
 ---------------------------------------------------------------------
      1          6           0        1.643273    0.634877    3.130970
      2          6           0        1.667804    1.751380    2.400218
      3          6           0        1.735884    1.702577    0.890210
      4          6           0        1.500749    0.305367    0.235952
      5          6           0        1.087035   -0.882370    1.145720
      6          6           0        1.699074   -0.752663    2.560690
      7          6           0        0.480715    0.584375   -0.900624
      8          6           0       -0.959733    0.460110   -0.455148
      9          6           0       -1.406166   -0.388932    0.497531
     10          6           0       -0.437197   -1.145915    1.291757
     11          6           0       -2.879859   -0.454324    0.860225
     12          8           0       -3.443372    0.546886    1.247184
     13          6           0       -3.587115   -1.795201    0.699237
     14          6           0       -3.612688   -2.227420   -0.792124
     15          6           0       -4.971093   -1.784336    1.350609
     16          8           0       -0.796471   -1.977843    2.114693
     17          6           0        0.506076    2.094443   -1.211793
     18          6           0       -0.893711    2.346623   -1.820116
     19          8           0       -1.728011    1.320000   -1.126194
     20          6           0        0.765621    2.690276    0.183517
     21          8           0        0.657386   -0.269389   -2.017829
     22          6           0        1.721785   -2.088369    0.404163
     23          6           0        3.032767   -1.512841   -0.117057
     24          8           0        2.732494   -0.114357   -0.405086
     25          6           0        3.680129   -2.135150   -1.335271
     26          6           0        4.930781   -1.439381   -1.810798
     27          6           0        3.215464   -3.243549   -1.914545
     28          6           0       -0.955087    2.067088   -3.320601
     29          6           0       -1.527884    3.694218   -1.496156
     30          1           0        1.302227    2.347874   -1.915779
     31          1           0        2.756750    1.975905    0.593518
     32          6           0        1.695187    3.118481    3.033915
     33          1           0        1.624935    0.714173    4.215961
     34          1           0        2.745524   -1.083683    2.538225
     35          1           0        1.180803   -1.459338    3.211265
     36          1           0       -2.952761   -2.519992    1.220967
     37          1           0       -2.584113   -2.286892   -1.163357
     38          1           0       -4.003316   -3.250678   -0.828535
     39          1           0       -5.459061   -2.754885    1.219199
     40          1           0       -5.618249   -1.014623    0.927517
     41          1           0       -4.896185   -1.586549    2.422077
     42          1           0        1.170077    3.703046    0.140057
     43          1           0       -0.167816    2.743581    0.749566
     44          1           0        1.615095   -0.403592   -2.104206
     45          1           0        1.081089   -2.403154   -0.421232
     46          1           0        1.865226   -2.938770    1.072639
     47          1           0        3.783827   -1.512222    0.685310
     48          1           0        4.729537   -0.396443   -2.070700
     49          1           0        5.690991   -1.421255   -1.021143
     50          1           0        5.360171   -1.937394   -2.682041
     51          1           0        3.724528   -3.687067   -2.764895
     52          1           0        2.327363   -3.759243   -1.568440
     53          1           0       -1.992650    2.088800   -3.662059
     54          1           0       -0.404595    2.838873   -3.866545
     55          1           0       -0.524612    1.096661   -3.562152
     56          1           0       -0.928967    4.501830   -1.926599
     57          1           0       -2.529705    3.751105   -1.926982
     58          1           0       -1.616741    3.862049   -0.423239
     59          1           0        1.725497    3.047875    4.122984
     60          1           0        2.575351    3.687691    2.710134
     61          1           0        0.819101    3.717678    2.765021
     62          6           0       -4.436498   -1.331733   -1.722796
     63          1           0       -4.376407   -1.694812   -2.752993
     64          1           0       -5.493464   -1.315730   -1.445365
     65          1           0       -4.077524   -0.298985   -1.716445
 ---------------------------------------------------------------------

 The electronic state is 1-A.
 Alpha  occ. eigenvalues --  -19.17505 -19.14618 -19.13970 -19.10842 -19.10657
 Alpha  occ. eigenvalues --  -10.26517 -10.26486 -10.25815 -10.25730 -10.25300
 Alpha  occ. eigenvalues --  -10.25239 -10.24283 -10.20748 -10.19857 -10.19753
 Alpha  occ. eigenvalues --  -10.19430 -10.18663 -10.18579 -10.18421 -10.18319
 Alpha  occ. eigenvalues --  -10.17692 -10.17673 -10.17553 -10.17477 -10.17087
 Alpha  occ. eigenvalues --  -10.16934 -10.16886 -10.16884 -10.16533 -10.14925
 Alpha  occ. eigenvalues --  -10.14505  -1.10193  -1.06858  -1.04586  -1.03945
 Alpha  occ. eigenvalues --   -1.03683  -0.87675  -0.84582  -0.83354  -0.82401
 Alpha  occ. eigenvalues --   -0.81151  -0.80334  -0.77581  -0.75149  -0.74059
 Alpha  occ. eigenvalues --   -0.72527  -0.72075  -0.70662  -0.70316  -0.68700
 Alpha  occ. eigenvalues --   -0.66417  -0.65172  -0.64261  -0.62470  -0.61482
 Alpha  occ. eigenvalues --   -0.60430  -0.59619  -0.57938  -0.55764  -0.54593
 Alpha  occ. eigenvalues --   -0.53626  -0.53159  -0.51656  -0.51210  -0.50212
 Alpha  occ. eigenvalues --   -0.49060  -0.48175  -0.47523  -0.47153  -0.46748
 Alpha  occ. eigenvalues --   -0.46227  -0.45606  -0.45515  -0.44861  -0.44206
 Alpha  occ. eigenvalues --   -0.43977  -0.43777  -0.42981  -0.42509  -0.42151
 Alpha  occ. eigenvalues --   -0.41802  -0.41642  -0.41305  -0.40824  -0.40172
 Alpha  occ. eigenvalues --   -0.39883  -0.39237  -0.38994  -0.38783  -0.38494
 Alpha  occ. eigenvalues --   -0.38370  -0.38210  -0.38059  -0.37824  -0.37632
 Alpha  occ. eigenvalues --   -0.37403  -0.36725  -0.36428  -0.35867  -0.35252
 Alpha  occ. eigenvalues --   -0.34604  -0.34472  -0.34233  -0.33785  -0.33036
 Alpha  occ. eigenvalues --   -0.32380  -0.32192  -0.31929  -0.29335  -0.27742
 Alpha  occ. eigenvalues --   -0.27431  -0.25979  -0.25274  -0.24480  -0.24052
 Alpha virt. eigenvalues --   -0.05875  -0.02434  -0.01934  -0.01119  -0.00113
 Alpha virt. eigenvalues --    0.00255   0.00581   0.01003   0.01546   0.01989
 Alpha virt. eigenvalues --    0.02039   0.02271   0.02804   0.03369   0.03462

 Mulliken atomic charges:
              1
     1  C   -0.248297
     2  C    0.724752
     3  C   -0.275734
     4  C   -0.888075
     5  C    1.165340
     6  C   -0.742570
     7  C   -0.992695
     8  C    0.476349
     9  C    0.740947
    10  C   -0.694016
    11  C   -0.228195
    12  O   -0.160802
    13  C    0.395046
    14  C   -0.396502
    15  C   -0.960916
    16  O   -0.201233
    17  C   -0.375796
    18  C    0.648114
    19  O    0.156848
    20  C   -1.134697
    21  O   -0.007687
    22  C   -0.544734
    23  C   -0.491717
    24  O    0.048122
    25  C    0.903120
    26  C   -1.011018
    27  C   -1.018561
    28  C   -0.844714
    29  C   -0.672541
    30  H    0.237893
    31  H    0.276305
    32  C   -1.063672
    33  H    0.201860
    34  H    0.238757
    35  H    0.283052
    36  H    0.277358
    37  H    0.243605
    38  H    0.230298
    39  H    0.237503
    40  H    0.270040
    41  H    0.263828
    42  H    0.265657
    43  H    0.286051
    44  H    0.286606
    45  H    0.252215
    46  H    0.279572
    47  H    0.233676
    48  H    0.268403
    49  H    0.263693
    50  H    0.255287
    51  H    0.230179
    52  H    0.238028
    53  H    0.265336
    54  H    0.252168
    55  H    0.309274
    56  H    0.259486
    57  H    0.268963
    58  H    0.263933
    59  H    0.257200
    60  H    0.253432
    61  H    0.258909
    62  C   -1.085268
    63  H    0.244529
    64  H    0.250635
    65  H    0.277070
 Sum of Mulliken atomic charges =   0.00000

 Dipole moment (field-independent basis, Debye):
    X=              4.7844    Y=              1.7307    Z=             -2.7680  Tot=              5.7921
 Quadrupole moment (field-independent basis, Debye-Ang):
   XX=           -191.7674   YY=           -178.3896   ZZ=           -189.7117
   XY=              1.6488   XZ=              6.1366   YZ=             -0.0841

 Normal termination of Gaussian 09 at Tue Apr 13 23:16:49 2021.
