 Gaussian 09, Revision B.01,
 Gaussian 09:  EM64L-G09RevB.01 12-Aug-2010

 ----------------------------------------
 # opt b3lyp/6-311+g(d) geom=connectivity
 ----------------------------------------

 -------------------
 Title Card Required
 -------------------
 Symbolic Z-matrix:
 Charge =  0 Multiplicity = 1

 SCF Done:  E(RB3LYP) =  -1387.64770399     A.U. after   17 cycles
 SCF Done:  E(RB3LYP) =  -1387.64798870     A.U. after   14 cycles
 SCF Done:  E(RB3LYP) =  -1387.64565085     A.U. after   16 cycles
 SCF Done:  E(RB3LYP) =  -1387.64819884     A.U. after   16 cycles
 SCF Done:  E(RB3LYP) =  -1387.64828866     A.U. after   13 cycles
 SCF Done:  E(RB3LYP) =  -1387.64835372     A.U. after   13 cycles
 SCF Done:  E(RB3LYP) =  -1387.64840346     A.U. after   12 cycles
 SCF Done:  E(RB3LYP) =  -1387.64841494     A.U. after   12 cycles
 SCF Done:  E(RB3LYP) =  -1387.64841791     A.U. after   12 cycles
 SCF Done:  E(RB3LYP) =  -1387.64842084     A.U. after   12 cycles
 SCF Done:  E(RB3LYP) =  -1387.64842175     A.U. after   10 cycles
 SCF Done:  E(RB3LYP) =  -1387.64842243     A.U. after   10 cycles
 SCF Done:  E(RB3LYP) =  -1387.64842291     A.U. after   10 cycles
 SCF Done:  E(RB3LYP) =  -1387.64842303     A.U. after   10 cycles
 SCF Done:  E(RB3LYP) =  -1387.64842293     A.U. after   10 cycles
 SCF Done:  E(RB3LYP) =  -1387.64842268     A.U. after   10 cycles
 SCF Done:  E(RB3LYP) =  -1387.64842243     A.U. after    9 cycles
 SCF Done:  E(RB3LYP) =  -1387.64842225     A.U. after    9 cycles
 Optimization completed on the basis of negligible forces.
    -- Stationary point found.

                         Standard orientation:
 ---------------------------------------------------------------------
 Center     Atomic      Atomic             Coordinates (Angstroms)
 Number     Number       Type             X           Y           Z
 ---------------------------------------------------------------------
      1          6           0        1.677165    0.630717    3.073887
      2          6           0        1.676875    1.766731    2.374825
      3          6           0        1.694631    1.765656    0.863281
      4          6           0        1.477066    0.386322    0.161413
      5          6           0        1.157888   -0.861722    1.039171
      6          6           0        1.741936   -0.740776    2.471719
      7          6           0        0.385349    0.672217   -0.904343
      8          6           0       -1.023053    0.472760   -0.390957
      9          6           0       -1.386154   -0.465641    0.512557
     10          6           0       -0.341492   -1.255676    1.168758
     11          6           0       -2.837321   -0.621552    0.932345
     12          8           0       -3.430113    0.337127    1.380040
     13          6           0       -3.489516   -1.988052    0.755882
     14          6           0       -3.487031   -2.417076   -0.735777
     15          6           0       -4.876959   -2.036340    1.398326
     16          8           0       -0.610178   -2.213252    1.882054
     17          6           0        0.343123    2.191890   -1.159515
     18          6           0       -1.097951    2.416649   -1.674030
     19          8           0       -1.854900    1.343517   -0.963652
     20          6           0        0.663895    2.748161    0.237689
     21          8           0        0.535934   -0.131390   -2.060996
     22          6           0        1.908566   -1.990623    0.283490
     23          6           0        3.166117   -1.271066   -0.205236
     24          8           0        2.683147    0.044170   -0.579683
     25          6           0        3.923241   -1.923129   -1.340136
     26          6           0        3.297938   -1.963516   -2.710674
     27          6           0        5.118054   -2.465716   -1.095481
     28          6           0       -1.242531    2.180089   -3.176352
     29          6           0       -1.752084    3.732782   -1.271192
     30          1           0        1.087187    2.496130   -1.899412
     31          1           0        2.693446    2.083719    0.538504
     32          6           0        1.714661    3.115178    3.047002
     33          1           0        1.687064    0.680275    4.160944
     34          1           0        2.790702   -1.064953    2.463707
     35          1           0        1.224292   -1.467012    3.101089
     36          1           0       -2.828076   -2.688560    1.277323
     37          1           0       -2.453491   -2.447072   -1.096144
     38          1           0       -3.848553   -3.450654   -0.779590
     39          1           0       -4.819107   -1.833728    2.469842
     40          1           0       -5.320503   -3.027680    1.265105
     41          1           0       -5.555326   -1.296649    0.970077
     42          1           0        1.039910    3.772261    0.206729
     43          1           0       -0.239206    2.758658    0.853334
     44          1           0        1.494242   -0.211433   -2.189779
     45          1           0        1.318452   -2.355959   -0.559614
     46          1           0        2.130405   -2.835962    0.936031
     47          1           0        3.864257   -1.143857    0.629144
     48          1           0        2.278851   -2.360955   -2.694384
     49          1           0        3.252623   -0.961363   -3.151387
     50          1           0        3.885702   -2.584305   -3.389076
     51          1           0        5.674795   -2.992534   -1.863997
     52          1           0        5.582730   -2.410020   -0.115755
     53          1           0       -2.299221    2.178782   -3.453994
     54          1           0       -0.750187    2.985445   -3.729278
     55          1           0       -0.797459    1.232252   -3.474390
     56          1           0       -1.208762    4.570922   -1.716690
     57          1           0       -2.781530    3.767201   -1.634035
     58          1           0       -1.774523    3.869510   -0.190538
     59          1           0        1.779579    3.013661    4.132106
     60          1           0        2.580735    3.699469    2.712477
     61          1           0        0.826999    3.715486    2.822716
     62          6           0       -4.325733   -1.541517   -1.672461
     63          1           0       -4.248736   -1.901142   -2.702743
     64          1           0       -5.384939   -1.552156   -1.403281
     65          1           0       -3.993560   -0.499631   -1.662298
 ---------------------------------------------------------------------

 The electronic state is 1-A.
 Alpha  occ. eigenvalues --  -19.17617 -19.14714 -19.14070 -19.10792 -19.10705
 Alpha  occ. eigenvalues --  -10.26610 -10.26556 -10.25876 -10.25727 -10.25407
 Alpha  occ. eigenvalues --  -10.25364 -10.24151 -10.20899 -10.19882 -10.19792
 Alpha  occ. eigenvalues --  -10.19463 -10.18699 -10.18581 -10.18498 -10.18363
 Alpha  occ. eigenvalues --  -10.18074 -10.17830 -10.17598 -10.17535 -10.17142
 Alpha  occ. eigenvalues --  -10.17015 -10.16964 -10.16813 -10.16479 -10.14964
 Alpha  occ. eigenvalues --  -10.14496  -1.10311  -1.06988  -1.04613  -1.03971
 Alpha  occ. eigenvalues --   -1.03857  -0.87677  -0.84616  -0.83433  -0.82425
 Alpha  occ. eigenvalues --   -0.81178  -0.80321  -0.77643  -0.75157  -0.74101
 Alpha  occ. eigenvalues --   -0.72543  -0.72077  -0.70894  -0.70702  -0.68710
 Alpha  occ. eigenvalues --   -0.66475  -0.65166  -0.64054  -0.62498  -0.61521
 Alpha  occ. eigenvalues --   -0.60349  -0.59667  -0.57994  -0.55811  -0.54967
 Alpha  occ. eigenvalues --   -0.53708  -0.53183  -0.51664  -0.51374  -0.50430
 Alpha  occ. eigenvalues --   -0.48677  -0.48147  -0.47714  -0.47271  -0.46639
 Alpha  occ. eigenvalues --   -0.46113  -0.45637  -0.45535  -0.44911  -0.44671
 Alpha  occ. eigenvalues --   -0.44101  -0.44055  -0.42926  -0.42380  -0.42332
 Alpha  occ. eigenvalues --   -0.41802  -0.41660  -0.41446  -0.40913  -0.40308
 Alpha  occ. eigenvalues --   -0.40034  -0.39300  -0.39228  -0.38771  -0.38643
 Alpha  occ. eigenvalues --   -0.38356  -0.38287  -0.38019  -0.37655  -0.37612
 Alpha  occ. eigenvalues --   -0.37457  -0.36685  -0.36493  -0.35968  -0.35449
 Alpha  occ. eigenvalues --   -0.34786  -0.34563  -0.34277  -0.33819  -0.33176
 Alpha  occ. eigenvalues --   -0.32433  -0.32250  -0.31936  -0.29535  -0.28300
 Alpha  occ. eigenvalues --   -0.26873  -0.25920  -0.25339  -0.24482  -0.24067
 Alpha virt. eigenvalues --   -0.05964  -0.02538  -0.01552  -0.00985  -0.00295
 Alpha virt. eigenvalues --    0.00137   0.00378   0.01098   0.01455   0.01858
 Alpha virt. eigenvalues --    0.02109   0.02461   0.02818   0.03354   0.03540

 Mulliken atomic charges:
              1
     1  C   -0.273504
     2  C    0.597000
     3  C   -0.244913
     4  C   -0.261681
     5  C    1.632846
     6  C   -1.140508
     7  C   -1.081687
     8  C    0.550049
     9  C    0.785686
    10  C   -0.876035
    11  C   -0.427891
    12  O   -0.163460
    13  C    0.406242
    14  C   -0.389269
    15  C   -0.978175
    16  O   -0.204418
    17  C   -0.392559
    18  C    0.578368
    19  O    0.145277
    20  C   -1.014393
    21  O    0.020403
    22  C   -0.903701
    23  C   -0.434754
    24  O    0.035111
    25  C    1.074409
    26  C   -1.164383
    27  C   -0.974934
    28  C   -0.829231
    29  C   -0.702050
    30  H    0.232697
    31  H    0.278705
    32  C   -1.103077
    33  H    0.204170
    34  H    0.256966
    35  H    0.280155
    36  H    0.287127
    37  H    0.244506
    38  H    0.228869
    39  H    0.263972
    40  H    0.237912
    41  H    0.268144
    42  H    0.264368
    43  H    0.283940
    44  H    0.260439
    45  H    0.265728
    46  H    0.278445
    47  H    0.222048
    48  H    0.283812
    49  H    0.280147
    50  H    0.263468
    51  H    0.227986
    52  H    0.216449
    53  H    0.266095
    54  H    0.253694
    55  H    0.312825
    56  H    0.260343
    57  H    0.269852
    58  H    0.263704
    59  H    0.255960
    60  H    0.255516
    61  H    0.259333
    62  C   -1.064180
    63  H    0.243894
    64  H    0.249445
    65  H    0.278698
 Sum of Mulliken atomic charges =   0.00000

 Dipole moment (field-independent basis, Debye):
    X=              4.3165    Y=              2.0772    Z=             -2.7334  Tot=              5.5153
 Quadrupole moment (field-independent basis, Debye-Ang):
   XX=           -193.7180   YY=           -179.4536   ZZ=           -187.4604
   XY=             -0.9847   XZ=              7.1607   YZ=              0.8769

 Normal termination of Gaussian 09 at Tue Apr 13 21:56:34 2021.
