 Gaussian 09, Revision B.01,
 Gaussian 09:  EM64L-G09RevB.01 12-Aug-2010

 ----------------------------------------
 # opt b3lyp/6-311+g(d) geom=connectivity
 ----------------------------------------

 -------------------
 Title Card Required
 -------------------
 Symbolic Z-matrix:
 Charge =  0 Multiplicity = 1

 SCF Done:  E(RB3LYP) =  -1387.64842897     A.U. after   16 cycles
 SCF Done:  E(RB3LYP) =  -1387.64895787     A.U. after   15 cycles
 SCF Done:  E(RB3LYP) =  -1387.64770201     A.U. after   17 cycles
 SCF Done:  E(RB3LYP) =  -1387.64946629     A.U. after   15 cycles
 SCF Done:  E(RB3LYP) =  -1387.64978281     A.U. after   16 cycles
 SCF Done:  E(RB3LYP) =  -1387.64999069     A.U. after   17 cycles
 SCF Done:  E(RB3LYP) =  -1387.65032752     A.U. after   15 cycles
 SCF Done:  E(RB3LYP) =  -1387.65054533     A.U. after   17 cycles
 SCF Done:  E(RB3LYP) =  -1387.65060457     A.U. after   15 cycles
 SCF Done:  E(RB3LYP) =  -1387.65069225     A.U. after   15 cycles
 SCF Done:  E(RB3LYP) =  -1387.65072527     A.U. after   15 cycles
 SCF Done:  E(RB3LYP) =  -1387.65075160     A.U. after   13 cycles
 SCF Done:  E(RB3LYP) =  -1387.65075601     A.U. after   13 cycles
 SCF Done:  E(RB3LYP) =  -1387.65075837     A.U. after   12 cycles
 SCF Done:  E(RB3LYP) =  -1387.65075971     A.U. after   12 cycles
 SCF Done:  E(RB3LYP) =  -1387.65075990     A.U. after   11 cycles
 SCF Done:  E(RB3LYP) =  -1387.65076000     A.U. after    9 cycles
 Optimization completed.
    -- Stationary point found.

                         Standard orientation:
 ---------------------------------------------------------------------
 Center     Atomic      Atomic             Coordinates (Angstroms)
 Number     Number       Type             X           Y           Z
 ---------------------------------------------------------------------
      1          6           0        2.237883    0.653292    2.663173
      2          6           0        2.754863    1.477781    1.748723
      3          6           0        2.117620    1.578378    0.383163
      4          6           0        1.393399    0.293072   -0.137002
      5          6           0        1.022795   -0.779870    0.939061
      6          6           0        1.033186   -0.204439    2.386162
      7          6           0        0.181305    0.838385   -0.951735
      8          6           0       -1.137407    0.709625   -0.205486
      9          6           0       -1.485355   -0.398411    0.496579
     10          6           0       -0.407007   -1.373748    0.746350
     11          6           0       -2.878128   -0.569074    1.054742
     12          8           0       -3.419631    0.371476    1.602315
     13          6           0       -3.564657   -1.920331    0.886751
     14          6           0       -3.745472   -2.257013   -0.617528
     15          6           0       -4.866857   -1.991217    1.686642
     16          8           0       -0.599147   -2.559019    0.963939
     17          6           0        0.304301    2.372183   -1.038246
     18          6           0       -1.162879    2.840216   -1.149325
     19          8           0       -1.904017    1.773605   -0.417535
     20          6           0        1.068127    2.711700    0.254218
     21          8           0        0.032348    0.192212   -2.203696
     22          6           0        2.105047   -1.874001    0.756897
     23          6           0        3.035049   -1.363926   -0.357373
     24          8           0        2.235888   -0.395670   -1.072054
     25          6           0        3.553035   -2.416199   -1.308092
     26          6           0        2.568969   -3.052030   -2.254521
     27          6           0        4.839253   -2.768778   -1.263033
     28          6           0       -1.667326    2.846337   -2.591680
     29          6           0       -1.501850    4.146321   -0.443574
     30          1           0        0.879059    2.663257   -1.920017
     31          1           0        2.899093    1.775555   -0.360527
     32          6           0        3.941909    2.363208    2.014773
     33          1           0        2.676321    0.602272    3.657361
     34          1           0        0.987207   -1.043994    3.084973
     35          1           0        0.117975    0.373891    2.562527
     36          1           0       -2.860629   -2.665344    1.271380
     37          1           0       -2.760139   -2.284542   -1.092499
     38          1           0       -4.136584   -3.278747   -0.679948
     39          1           0       -4.680878   -1.850145    2.753798
     40          1           0       -5.338403   -2.969593    1.553034
     41          1           0       -5.579766   -1.222368    1.384793
     42          1           0        0.401325    2.691700    1.121268
     43          1           0        1.528959    3.701369    0.228909
     44          1           0        0.851298   -0.310252   -2.349667
     45          1           0        1.625792   -2.815796    0.491373
     46          1           0        2.669968   -2.048410    1.673470
     47          1           0        3.885964   -0.834352    0.085218
     48          1           0        2.236265   -2.335376   -3.011645
     49          1           0        1.671135   -3.405589   -1.738915
     50          1           0        3.016840   -3.899998   -2.775694
     51          1           0        5.236778   -3.562229   -1.888001
     52          1           0        5.542740   -2.282648   -0.593593
     53          1           0       -2.749051    2.997733   -2.609368
     54          1           0       -1.201445    3.665111   -3.147611
     55          1           0       -1.433654    1.910304   -3.098503
     56          1           0       -0.958132    4.974279   -0.906923
     57          1           0       -1.250019    4.116876    0.616654
     58          1           0       -2.570494    4.353826   -0.528257
     59          1           0        4.315525    2.242714    3.033851
     60          1           0        4.764238    2.143426    1.323576
     61          1           0        3.693191    3.421475    1.873431
     62          6           0       -4.663103   -1.309533   -1.396185
     63          1           0       -4.714616   -1.606155   -2.447833
     64          1           0       -4.305231   -0.276201   -1.364677
     65          1           0       -5.684359   -1.314450   -1.006414
 ---------------------------------------------------------------------

 The electronic state is 1-A.
 Alpha  occ. eigenvalues --  -19.17670 -19.15061 -19.13553 -19.11265 -19.10319
 Alpha  occ. eigenvalues --  -10.26674 -10.26423 -10.25835 -10.25709 -10.25627
 Alpha  occ. eigenvalues --  -10.25458 -10.23899 -10.20918 -10.19761 -10.19759
 Alpha  occ. eigenvalues --  -10.19389 -10.19251 -10.19072 -10.18794 -10.18236
 Alpha  occ. eigenvalues --  -10.17902 -10.17800 -10.17623 -10.17609 -10.17224
 Alpha  occ. eigenvalues --  -10.17183 -10.16945 -10.16581 -10.16081 -10.14756
 Alpha  occ. eigenvalues --  -10.14379  -1.10354  -1.07565  -1.04842  -1.03762
 Alpha  occ. eigenvalues --   -1.03656  -0.88116  -0.84763  -0.83216  -0.82427
 Alpha  occ. eigenvalues --   -0.81045  -0.80112  -0.77687  -0.74912  -0.74042
 Alpha  occ. eigenvalues --   -0.73058  -0.71878  -0.70873  -0.70226  -0.69217
 Alpha  occ. eigenvalues --   -0.66419  -0.64765  -0.64625  -0.62504  -0.61690
 Alpha  occ. eigenvalues --   -0.60011  -0.59491  -0.57892  -0.55918  -0.54674
 Alpha  occ. eigenvalues --   -0.53721  -0.52892  -0.52128  -0.51117  -0.50409
 Alpha  occ. eigenvalues --   -0.48851  -0.48067  -0.47929  -0.47551  -0.46846
 Alpha  occ. eigenvalues --   -0.46290  -0.45488  -0.45212  -0.45060  -0.44293
 Alpha  occ. eigenvalues --   -0.44123  -0.43564  -0.43334  -0.42323  -0.42228
 Alpha  occ. eigenvalues --   -0.41788  -0.41612  -0.41257  -0.40945  -0.40618
 Alpha  occ. eigenvalues --   -0.40447  -0.39860  -0.39354  -0.38834  -0.38468
 Alpha  occ. eigenvalues --   -0.38272  -0.38066  -0.37880  -0.37757  -0.37399
 Alpha  occ. eigenvalues --   -0.36848  -0.36592  -0.36215  -0.35979  -0.35392
 Alpha  occ. eigenvalues --   -0.34863  -0.34591  -0.34180  -0.33890  -0.33316
 Alpha  occ. eigenvalues --   -0.32575  -0.32116  -0.31687  -0.29565  -0.28851
 Alpha  occ. eigenvalues --   -0.26601  -0.25844  -0.25483  -0.24645  -0.23765
 Alpha virt. eigenvalues --   -0.05958  -0.02259  -0.01470  -0.01357  -0.00513
 Alpha virt. eigenvalues --   -0.00037   0.00280   0.00714   0.01662   0.01802
 Alpha virt. eigenvalues --    0.01888   0.02253   0.03016   0.03249   0.03370

 Mulliken atomic charges:
              1
     1  C   -0.707240
     2  C    0.972571
     3  C   -0.050594
     4  C    0.447912
     5  C    1.233957
     6  C   -1.358371
     7  C   -0.851198
     8  C    0.422884
     9  C    0.868389
    10  C   -1.205517
    11  C   -1.146063
    12  O   -0.151371
    13  C    0.521444
    14  C   -0.329497
    15  C   -0.921643
    16  O   -0.163368
    17  C   -0.446915
    18  C    0.993269
    19  O    0.212809
    20  C   -1.451974
    21  O   -0.066766
    22  C   -0.342547
    23  C   -0.269954
    24  O    0.051779
    25  C    0.772124
    26  C   -1.081850
    27  C   -0.996807
    28  C   -0.868998
    29  C   -0.639638
    30  H    0.240489
    31  H    0.265660
    32  C   -1.200948
    33  H    0.207259
    34  H    0.266162
    35  H    0.270355
    36  H    0.267702
    37  H    0.252568
    38  H    0.221713
    39  H    0.260208
    40  H    0.238080
    41  H    0.268799
    42  H    0.297567
    43  H    0.262580
    44  H    0.280882
    45  H    0.304277
    46  H    0.255097
    47  H    0.244378
    48  H    0.266019
    49  H    0.282629
    50  H    0.260261
    51  H    0.228805
    52  H    0.214038
    53  H    0.265173
    54  H    0.248546
    55  H    0.310524
    56  H    0.261734
    57  H    0.271961
    58  H    0.273398
    59  H    0.250282
    60  H    0.262058
    61  H    0.250014
    62  C   -1.055013
    63  H    0.240127
    64  H    0.270206
    65  H    0.249583
 Sum of Mulliken atomic charges =   0.00000

 Dipole moment (field-independent basis, Debye):
    X=              4.7846    Y=              2.7626    Z=             -1.1201  Tot=              5.6373
 Quadrupole moment (field-independent basis, Debye-Ang):
   XX=           -192.2037   YY=           -180.1281   ZZ=           -189.2188
   XY=              2.5834   XZ=              9.3379   YZ=             -0.8436

 Normal termination of Gaussian 09 at Tue Apr 13 22:11:50 2021.
