 Gaussian 09, Revision B.01,
 Gaussian 09:  EM64L-G09RevB.01 12-Aug-2010

 --------------------------------------
 # opt b3lyp/6-31g(d) geom=connectivity
 --------------------------------------

 -------------------
 Title Card Required
 -------------------
 Symbolic Z-matrix:
 Charge =  0 Multiplicity = 1

 SCF Done:  E(RB3LYP) =  -1718.35801764     A.U. after   15 cycles
 SCF Done:  E(RB3LYP) =  -1718.37007669     A.U. after   13 cycles
 SCF Done:  E(RB3LYP) =  -1718.37195563     A.U. after   13 cycles
 SCF Done:  E(RB3LYP) =  -1718.37063077     A.U. after   13 cycles
 SCF Done:  E(RB3LYP) =  -1718.37250154     A.U. after   12 cycles
 SCF Done:  E(RB3LYP) =  -1718.37290899     A.U. after   12 cycles
 SCF Done:  E(RB3LYP) =  -1718.37286342     A.U. after   12 cycles
 SCF Done:  E(RB3LYP) =  -1718.37302169     A.U. after   11 cycles
 SCF Done:  E(RB3LYP) =  -1718.37302486     A.U. after   11 cycles
 SCF Done:  E(RB3LYP) =  -1718.37304350     A.U. after   10 cycles
 SCF Done:  E(RB3LYP) =  -1718.37304477     A.U. after    8 cycles
 SCF Done:  E(RB3LYP) =  -1718.37304502     A.U. after    8 cycles
 SCF Done:  E(RB3LYP) =  -1718.37304512     A.U. after    7 cycles
 Optimization completed.
    -- Stationary point found.

                         Standard orientation:
 ---------------------------------------------------------------------
 Center     Atomic      Atomic             Coordinates (Angstroms)
 Number     Number       Type             X           Y           Z
 ---------------------------------------------------------------------
      1          6           0        5.804372   -0.561844   -1.260126
      2          6           0        4.869870   -1.602235   -1.374231
      3          6           0        3.618781   -1.570634   -0.742039
      4          6           0        3.260783   -0.476084    0.044919
      5          6           0        4.185655    0.591456    0.191404
      6          6           0        5.450017    0.534847   -0.462304
      7          6           0        1.984071   -0.370001    0.735958
      8          6           0        1.744142    0.718055    1.501050
      9          8           0        2.640930    1.746707    1.632802
     10          6           0        3.863272    1.740229    1.003231
     11          6           0        0.955632   -1.475329    0.619993
     12          6           0       -0.449430   -1.067033    1.108526
     13          6           0       -0.341313   -0.306036    2.438792
     14          6           0        0.490460    0.971494    2.282329
     15          6           0        7.142255   -0.609265   -1.950600
     16          8           0        6.343682    1.528665   -0.338069
     17          8           0        5.234992   -2.668687   -2.140650
     18          8           0        4.584891    2.718093    1.188478
     19          8           0       -0.980323   -0.269933    0.037758
     20          6           0       -2.259791    0.368768    0.174336
     21          6           0       -2.210290    1.560769   -0.782120
     22          6           0       -3.467668    2.412924   -0.637955
     23          6           0       -4.703060    1.561059   -0.709332
     24          6           0       -4.694155    0.236487   -0.491614
     25          6           0       -3.435512   -0.550987   -0.185170
     26          8           0       -1.099504    2.410782   -0.524200
     27          8           0       -3.541769    3.404513   -1.653228
     28          6           0       -5.937984   -0.581005   -0.564369
     29          8           0       -7.046644    0.146201   -0.824754
     30          8           0       -5.954806   -1.788177   -0.408512
     31          6           0       -8.265783   -0.606285   -0.917953
     32          6           0       -1.298367   -2.339376    1.299022
     33          8           0       -1.370890   -3.072935    0.165876
     34          8           0       -1.840005   -2.667792    2.331006
     35          1           0        2.940784   -2.409550   -0.868424
     36          1           0        1.292892   -2.357665    1.182833
     37          1           0        0.852349   -1.792609   -0.422203
     38          1           0        0.131843   -0.977564    3.163333
     39          1           0       -1.329751   -0.080764    2.847259
     40          1           0       -0.087229    1.759100    1.780093
     41          1           0        0.762108    1.370350    3.266707
     42          1           0        7.437390    0.390453   -2.280330
     43          1           0        7.927767   -0.969502   -1.273268
     44          1           0        7.113420   -1.279095   -2.812493
     45          1           0        5.932849    2.221058    0.243034
     46          1           0        4.503558   -3.305186   -2.166753
     47          1           0       -2.381351    0.751990    1.195601
     48          1           0       -2.169478    1.182684   -1.815615
     49          1           0       -3.427155    2.899602    0.354403
     50          1           0       -5.629251    2.076870   -0.942214
     51          1           0       -3.646986   -1.257223    0.623640
     52          1           0       -3.157361   -1.161414   -1.053783
     53          1           0       -0.307923    1.853327   -0.608132
     54          1           0       -2.697342    3.884610   -1.616348
     55          1           0       -9.045192    0.126877   -1.127321
     56          1           0       -8.203030   -1.341877   -1.724380
     57          1           0       -8.469092   -1.126874    0.021720
     58          1           0       -1.943976   -3.836944    0.370095
 ---------------------------------------------------------------------

 The electronic state is 1-A.
 Alpha  occ. eigenvalues --  -19.22130 -19.21698 -19.19778 -19.19720 -19.17988
 Alpha  occ. eigenvalues --  -19.17145 -19.16424 -19.16234 -19.15062 -19.14303
 Alpha  occ. eigenvalues --  -19.14042 -10.33855 -10.32842 -10.32019 -10.28248
 Alpha  occ. eigenvalues --  -10.27270 -10.27044 -10.26720 -10.25725 -10.25233
 Alpha  occ. eigenvalues --  -10.24740 -10.24502 -10.22740 -10.21847 -10.21786
 Alpha  occ. eigenvalues --  -10.21599 -10.21160 -10.21061 -10.20853 -10.20784
 Alpha  occ. eigenvalues --  -10.20210 -10.19936 -10.19856 -10.17789  -1.12748
 Alpha  occ. eigenvalues --   -1.12511  -1.10629  -1.07947  -1.06526  -1.06362
 Alpha  occ. eigenvalues --   -1.03996  -1.03658  -1.02910  -1.01898  -1.01723
 Alpha  occ. eigenvalues --   -0.88040  -0.86204  -0.84744  -0.80741  -0.79392
 Alpha  occ. eigenvalues --   -0.77038  -0.76514  -0.75685  -0.74857  -0.72370
 Alpha  occ. eigenvalues --   -0.70237  -0.68818  -0.66846  -0.65803  -0.64314
 Alpha  occ. eigenvalues --   -0.64225  -0.63303  -0.61585  -0.58950  -0.57897
 Alpha  occ. eigenvalues --   -0.57158  -0.55890  -0.54920  -0.54484  -0.53676
 Alpha  occ. eigenvalues --   -0.53006  -0.51997  -0.51246  -0.50274  -0.49266
 Alpha  occ. eigenvalues --   -0.48922  -0.48611  -0.48449  -0.47882  -0.47550
 Alpha  occ. eigenvalues --   -0.47143  -0.46704  -0.46189  -0.45493  -0.44876
 Alpha  occ. eigenvalues --   -0.44193  -0.44012  -0.43880  -0.43644  -0.42704
 Alpha  occ. eigenvalues --   -0.42601  -0.42026  -0.41660  -0.41360  -0.41051
 Alpha  occ. eigenvalues --   -0.40797  -0.39955  -0.39683  -0.39072  -0.38860
 Alpha  occ. eigenvalues --   -0.38506  -0.38201  -0.37771  -0.37314  -0.37161
 Alpha  occ. eigenvalues --   -0.36388  -0.35683  -0.35584  -0.35146  -0.34754
 Alpha  occ. eigenvalues --   -0.34094  -0.33803  -0.33626  -0.33559  -0.30761
 Alpha  occ. eigenvalues --   -0.30656  -0.28920  -0.28704  -0.28430  -0.27810
 Alpha  occ. eigenvalues --   -0.27574  -0.26401  -0.26218  -0.23689  -0.21725
 Alpha virt. eigenvalues --   -0.04833  -0.04690  -0.02959  -0.02028   0.03653
 Alpha virt. eigenvalues --    0.05088   0.05328   0.06234   0.06471   0.07224
 Alpha virt. eigenvalues --    0.07692   0.09273   0.09886   0.10283   0.10876

 Mulliken atomic charges:
              1
     1  C    0.093507
     2  C    0.324241
     3  C   -0.308609
     4  C    0.139852
     5  C   -0.062953
     6  C    0.240170
     7  C    0.054378
     8  C    0.278686
     9  O   -0.497802
    10  C    0.597014
    11  C   -0.371737
    12  C    0.246308
    13  C   -0.302991
    14  C   -0.360831
    15  C   -0.513717
    16  O   -0.650724
    17  O   -0.637238
    18  O   -0.533290
    19  O   -0.551858
    20  C    0.126677
    21  C    0.093525
    22  C    0.108569
    23  C   -0.158883
    24  C    0.057871
    25  C   -0.365005
    26  O   -0.652592
    27  O   -0.638105
    28  C    0.604793
    29  O   -0.465113
    30  O   -0.493522
    31  C   -0.217001
    32  C    0.587392
    33  O   -0.568573
    34  O   -0.464993
    35  H    0.121185
    36  H    0.164405
    37  H    0.186788
    38  H    0.166762
    39  H    0.168982
    40  H    0.188360
    41  H    0.176649
    42  H    0.176238
    43  H    0.167958
    44  H    0.170465
    45  H    0.447760
    46  H    0.414362
    47  H    0.138413
    48  H    0.140780
    49  H    0.142168
    50  H    0.179419
    51  H    0.179299
    52  H    0.180548
    53  H    0.414101
    54  H    0.409082
    55  H    0.166968
    56  H    0.171335
    57  H    0.171666
    58  H    0.418864
 Sum of Mulliken atomic charges =   0.00000

 Dipole moment (field-independent basis, Debye):
    X=             -3.0123    Y=             -4.0272    Z=             -0.6572  Tot=              5.0719
 Quadrupole moment (field-independent basis, Debye-Ang):
   XX=           -202.2080   YY=           -195.4304   ZZ=           -196.6801
   XY=            -16.2189   XZ=             -2.5335   YZ=              5.9143

 Normal termination of Gaussian 09 at Tue Feb  2 11:23:33 2021.
