 Gaussian 09, Revision B.01,
 Gaussian 09:  EM64L-G09RevB.01 12-Aug-2010

 --------------------------------------
 # opt b3lyp/6-31g(d) geom=connectivity
 --------------------------------------

 -------------------
 Title Card Required
 -------------------
 Symbolic Z-matrix:
 Charge =  0 Multiplicity = 1

 SCF Done:  E(RB3LYP) =  -1718.35836896     A.U. after   15 cycles
 SCF Done:  E(RB3LYP) =  -1718.37012077     A.U. after   13 cycles
 SCF Done:  E(RB3LYP) =  -1718.37228709     A.U. after   12 cycles
 SCF Done:  E(RB3LYP) =  -1718.37153096     A.U. after   13 cycles
 SCF Done:  E(RB3LYP) =  -1718.37286993     A.U. after   13 cycles
 SCF Done:  E(RB3LYP) =  -1718.37336962     A.U. after   12 cycles
 SCF Done:  E(RB3LYP) =  -1718.37330415     A.U. after   12 cycles
 SCF Done:  E(RB3LYP) =  -1718.37354419     A.U. after   12 cycles
 SCF Done:  E(RB3LYP) =  -1718.37359913     A.U. after   10 cycles
 SCF Done:  E(RB3LYP) =  -1718.37359255     A.U. after   12 cycles
 SCF Done:  E(RB3LYP) =  -1718.37369380     A.U. after   10 cycles
 SCF Done:  E(RB3LYP) =  -1718.37369380     A.U. after   10 cycles
 SCF Done:  E(RB3LYP) =  -1718.37369384     A.U. after    8 cycles
 SCF Done:  E(RB3LYP) =  -1718.37369360     A.U. after    9 cycles
 SCF Done:  E(RB3LYP) =  -1718.37369329     A.U. after    9 cycles
 SCF Done:  E(RB3LYP) =  -1718.37369298     A.U. after   10 cycles
 SCF Done:  E(RB3LYP) =  -1718.37369277     A.U. after   10 cycles
 SCF Done:  E(RB3LYP) =  -1718.37369283     A.U. after    8 cycles
 SCF Done:  E(RB3LYP) =  -1718.37369294     A.U. after    7 cycles
 SCF Done:  E(RB3LYP) =  -1718.37369308     A.U. after    7 cycles
 Optimization completed.
    -- Stationary point found.

                         Standard orientation:
 ---------------------------------------------------------------------
 Center     Atomic      Atomic             Coordinates (Angstroms)
 Number     Number       Type             X           Y           Z
 ---------------------------------------------------------------------
      1          6           0       -4.661598    2.433858    0.624771
      2          6           0       -3.271673    2.622126    0.710941
      3          6           0       -2.348671    1.621033    0.387098
      4          6           0       -2.802281    0.376038   -0.042777
      5          6           0       -4.202506    0.149693   -0.148332
      6          6           0       -5.121611    1.182980    0.189791
      7          6           0       -1.909965   -0.717185   -0.402959
      8          6           0       -2.445300   -1.873726   -0.849303
      9          8           0       -3.796833   -2.083434   -0.947565
     10          6           0       -4.713320   -1.120406   -0.603247
     11          6           0       -0.407508   -0.546630   -0.297951
     12          6           0        0.390630   -1.862699   -0.402446
     13          6           0       -0.195754   -2.737519   -1.526989
     14          6           0       -1.668153   -3.080453   -1.281620
     15          6           0       -5.623725    3.539023    0.985351
     16          8           0       -6.447803    0.989879    0.101329
     17          8           0       -2.746923    3.807528    1.121964
     18          8           0       -5.900549   -1.421613   -0.719979
     19          8           0        1.746512   -1.655804   -0.786774
     20          6           0        2.603767   -0.814633    0.013314
     21          6           0        3.914507   -1.578998    0.214859
     22          6           0        4.899051   -0.752800    1.044305
     23          6           0        5.040356    0.643763    0.515909
     24          6           0        4.107081    1.226051   -0.252356
     25          6           0        2.853422    0.513183   -0.717241
     26          8           0        3.750196   -2.796381    0.918037
     27          8           0        6.180353   -1.366653    1.073897
     28          6           0        4.247437    2.625735   -0.740522
     29          8           0        5.388484    3.226787   -0.334371
     30          8           0        3.418002    3.177946   -1.439920
     31          6           0        5.567729    4.574402   -0.794475
     32          6           0        0.384620   -2.712491    0.890234
     33          8           0       -0.449206   -2.266913    1.848509
     34          8           0        1.057531   -3.713590    1.027294
     35          1           0       -1.294739    1.853884    0.473832
     36          1           0       -0.168055   -0.037231    0.641031
     37          1           0       -0.055089    0.103217   -1.108963
     38          1           0        0.408527   -3.643984   -1.616726
     39          1           0       -0.087114   -2.169293   -2.457204
     40          1           0       -2.120296   -3.486805   -2.193867
     41          1           0       -1.769808   -3.870164   -0.522578
     42          1           0       -6.652629    3.200876    0.856895
     43          1           0       -5.511524    3.857025    2.032063
     44          1           0       -5.489093    4.425757    0.348930
     45          1           0       -6.586077    0.058588   -0.218513
     46          1           0       -3.465501    4.431012    1.311168
     47          1           0        2.148291   -0.639861    0.998284
     48          1           0        4.363751   -1.753536   -0.776764
     49          1           0        4.491590   -0.699607    2.071619
     50          1           0        5.936268    1.183687    0.805912
     51          1           0        1.994003    1.183862   -0.617757
     52          1           0        2.934577    0.299363   -1.791316
     53          1           0        2.992638   -3.280596    0.541118
     54          1           0        6.017487   -2.289160    1.334908
     55          1           0        6.525084    4.897236   -0.384276
     56          1           0        5.586073    4.608775   -1.887097
     57          1           0        4.758743    5.215568   -0.433900
     58          1           0       -0.374436   -2.892712    2.595702
 ---------------------------------------------------------------------

 The electronic state is 1-A.
 Alpha  occ. eigenvalues --  -19.22778 -19.22184 -19.19677 -19.19354 -19.17471
 Alpha  occ. eigenvalues --  -19.17412 -19.16900 -19.14387 -19.14324 -19.14300
 Alpha  occ. eigenvalues --  -19.13658 -10.34603 -10.32909 -10.31630 -10.28386
 Alpha  occ. eigenvalues --  -10.27230 -10.27123 -10.27020 -10.25523 -10.24424
 Alpha  occ. eigenvalues --  -10.24209 -10.23773 -10.22608 -10.21671 -10.21584
 Alpha  occ. eigenvalues --  -10.21505 -10.21262 -10.21115 -10.20811 -10.20648
 Alpha  occ. eigenvalues --  -10.20452 -10.19977 -10.19960 -10.19300  -1.13711
 Alpha  occ. eigenvalues --   -1.12597  -1.10253  -1.07949  -1.06776  -1.06179
 Alpha  occ. eigenvalues --   -1.04103  -1.03026  -1.02972  -1.01345  -1.00638
 Alpha  occ. eigenvalues --   -0.88028  -0.86209  -0.84488  -0.81043  -0.78907
 Alpha  occ. eigenvalues --   -0.77242  -0.76398  -0.75803  -0.74352  -0.71926
 Alpha  occ. eigenvalues --   -0.70973  -0.69101  -0.66652  -0.66310  -0.65209
 Alpha  occ. eigenvalues --   -0.63630  -0.62169  -0.61557  -0.59062  -0.58130
 Alpha  occ. eigenvalues --   -0.57404  -0.55373  -0.55122  -0.54614  -0.53552
 Alpha  occ. eigenvalues --   -0.52702  -0.51415  -0.51105  -0.50728  -0.49902
 Alpha  occ. eigenvalues --   -0.49358  -0.48373  -0.48256  -0.47861  -0.47616
 Alpha  occ. eigenvalues --   -0.46961  -0.46038  -0.45973  -0.45292  -0.44797
 Alpha  occ. eigenvalues --   -0.44430  -0.44083  -0.43801  -0.43297  -0.42779
 Alpha  occ. eigenvalues --   -0.42505  -0.42134  -0.41971  -0.41421  -0.40815
 Alpha  occ. eigenvalues --   -0.40525  -0.40146  -0.39874  -0.39797  -0.39361
 Alpha  occ. eigenvalues --   -0.39098  -0.38331  -0.37705  -0.37518  -0.37322
 Alpha  occ. eigenvalues --   -0.35904  -0.35590  -0.35368  -0.35026  -0.34858
 Alpha  occ. eigenvalues --   -0.34412  -0.33898  -0.33348  -0.32542  -0.30484
 Alpha  occ. eigenvalues --   -0.30299  -0.29025  -0.28571  -0.27870  -0.27390
 Alpha  occ. eigenvalues --   -0.26756  -0.26564  -0.25515  -0.23610  -0.21943
 Alpha virt. eigenvalues --   -0.04758  -0.04405  -0.03038  -0.02816   0.03748
 Alpha virt. eigenvalues --    0.04954   0.05583   0.06093   0.07014   0.07435
 Alpha virt. eigenvalues --    0.08581   0.09691   0.10438   0.11004   0.11154

 Mulliken atomic charges:
              1
     1  C    0.110455
     2  C    0.299947
     3  C   -0.271296
     4  C    0.141707
     5  C   -0.060892
     6  C    0.238588
     7  C    0.070221
     8  C    0.286691
     9  O   -0.499608
    10  C    0.598908
    11  C   -0.384155
    12  C    0.254648
    13  C   -0.297639
    14  C   -0.369068
    15  C   -0.585797
    16  O   -0.659815
    17  O   -0.636735
    18  O   -0.537387
    19  O   -0.546236
    20  C    0.103474
    21  C    0.115792
    22  C    0.112481
    23  C   -0.157803
    24  C    0.054354
    25  C   -0.350805
    26  O   -0.679890
    27  O   -0.642875
    28  C    0.603967
    29  O   -0.465612
    30  O   -0.493183
    31  C   -0.216202
    32  C    0.594085
    33  O   -0.560071
    34  O   -0.476228
    35  H    0.143790
    36  H    0.171561
    37  H    0.184137
    38  H    0.175753
    39  H    0.169160
    40  H    0.182969
    41  H    0.177519
    42  H    0.209519
    43  H    0.161460
    44  H    0.162269
    45  H    0.449140
    46  H    0.422363
    47  H    0.133582
    48  H    0.133793
    49  H    0.137342
    50  H    0.177341
    51  H    0.170188
    52  H    0.177943
    53  H    0.429291
    54  H    0.410437
    55  H    0.165718
    56  H    0.171464
    57  H    0.169968
    58  H    0.419273
 Sum of Mulliken atomic charges =   0.00000

 Dipole moment (field-independent basis, Debye):
    X=              0.2174    Y=              2.2604    Z=              1.8135  Tot=              2.9062
 Quadrupole moment (field-independent basis, Debye-Ang):
   XX=           -223.2876   YY=           -179.2518   ZZ=           -188.2443
   XY=             -1.9711   XZ=             -8.0541   YZ=              4.4879

 Normal termination of Gaussian 09 at Tue Feb  2 13:14:39 2021.
