 Gaussian 09, Revision B.01,
 Gaussian 09:  EM64L-G09RevB.01 12-Aug-2010

 --------------------------------------
 # opt b3lyp/6-31g(d) geom=connectivity
 --------------------------------------

 -------------------
 Title Card Required
 -------------------
 Symbolic Z-matrix:
 Charge =  0 Multiplicity = 1

 SCF Done:  E(RB3LYP) =  -1718.35556974     A.U. after   15 cycles
 SCF Done:  E(RB3LYP) =  -1718.36811753     A.U. after   13 cycles
 SCF Done:  E(RB3LYP) =  -1718.37028790     A.U. after   13 cycles
 SCF Done:  E(RB3LYP) =  -1718.37020515     A.U. after   12 cycles
 SCF Done:  E(RB3LYP) =  -1718.37076203     A.U. after   16 cycles
 SCF Done:  E(RB3LYP) =  -1718.37119235     A.U. after   12 cycles
 SCF Done:  E(RB3LYP) =  -1718.37140256     A.U. after   12 cycles
 SCF Done:  E(RB3LYP) =  -1718.37152431     A.U. after   13 cycles
 SCF Done:  E(RB3LYP) =  -1718.37165269     A.U. after   12 cycles
 SCF Done:  E(RB3LYP) =  -1718.37170618     A.U. after   11 cycles
 SCF Done:  E(RB3LYP) =  -1718.37171503     A.U. after   12 cycles
 SCF Done:  E(RB3LYP) =  -1718.37174861     A.U. after   12 cycles
 SCF Done:  E(RB3LYP) =  -1718.37176865     A.U. after   12 cycles
 SCF Done:  E(RB3LYP) =  -1718.37177435     A.U. after   10 cycles
 SCF Done:  E(RB3LYP) =  -1718.37177531     A.U. after    8 cycles
 SCF Done:  E(RB3LYP) =  -1718.37177602     A.U. after    7 cycles
 SCF Done:  E(RB3LYP) =  -1718.37177635     A.U. after    7 cycles
 Optimization completed.
    -- Stationary point found.

                         Standard orientation:
 ---------------------------------------------------------------------
 Center     Atomic      Atomic             Coordinates (Angstroms)
 Number     Number       Type             X           Y           Z
 ---------------------------------------------------------------------
      1          6           0        5.802080   -0.475631   -1.260289
      2          6           0        4.874805   -1.516436   -1.440239
      3          6           0        3.622359   -1.533656   -0.815673
      4          6           0        3.257602   -0.485598    0.026632
      5          6           0        4.171632    0.583291    0.237920
      6          6           0        5.438574    0.579066   -0.411262
      7          6           0        1.976188   -0.427341    0.715907
      8          6           0        1.723883    0.614511    1.538304
      9          8           0        2.610955    1.643663    1.732554
     10          6           0        3.834896    1.681476    1.110924
     11          6           0        0.959774   -1.534038    0.538651
     12          6           0       -0.451791   -1.164972    1.033343
     13          6           0       -0.364562   -0.473766    2.403852
     14          6           0        0.463725    0.815103    2.323891
     15          6           0        7.140752   -0.492615   -1.956630
     16          8           0        6.316118    1.579589   -0.229693
     17          8           0        5.155739   -2.575642   -2.245765
     18          8           0        4.548911    2.653317    1.355692
     19          8           0       -0.972910   -0.305121    0.003835
     20          6           0       -2.243693    0.344080    0.159595
     21          6           0       -2.169943    1.565432   -0.758243
     22          6           0       -3.414117    2.432905   -0.596234
     23          6           0       -4.663922    1.604908   -0.691127
     24          6           0       -4.678591    0.274805   -0.509485
     25          6           0       -3.432605   -0.543699   -0.233222
     26          8           0       -1.047965    2.388918   -0.465213
     27          8           0       -3.467863    3.453779   -1.583547
     28          6           0       -5.943958   -0.510919   -0.567169
     29          8           0       -7.025082    0.233305   -0.889475
     30          8           0       -6.001751   -1.706411   -0.345649
     31          6           0       -8.265773   -0.485465   -0.959152
     32          6           0       -1.283127   -2.467466    1.043624
     33          8           0       -2.043894   -2.614134    2.155832
     34          8           0       -1.275748   -3.276243    0.145594
     35          1           0        2.966912   -2.373808   -1.008266
     36          1           0        1.300112   -2.439299    1.060145
     37          1           0        0.864215   -1.809391   -0.515468
     38          1           0        0.106408   -1.177636    3.100056
     39          1           0       -1.356299   -0.264727    2.812448
     40          1           0       -0.115488    1.625417    1.861286
     41          1           0        0.724726    1.160361    3.331253
     42          1           0        7.711622    0.400496   -1.699576
     43          1           0        7.745990   -1.363291   -1.664919
     44          1           0        7.034755   -0.509294   -3.051108
     45          1           0        5.892552    2.228826    0.393173
     46          1           0        6.040858   -2.465435   -2.626957
     47          1           0       -2.363722    0.695982    1.192423
     48          1           0       -2.127029    1.218394   -1.802389
     49          1           0       -3.369238    2.891563    0.409347
     50          1           0       -5.582229    2.144196   -0.900914
     51          1           0       -3.655245   -1.273941    0.549421
     52          1           0       -3.163366   -1.127892   -1.123160
     53          1           0       -0.265112    1.820945   -0.560802
     54          1           0       -2.614648    3.916565   -1.531192
     55          1           0       -9.017897    0.257429   -1.226231
     56          1           0       -8.213261   -1.269931   -1.718829
     57          1           0       -8.501391   -0.941996    0.006028
     58          1           0       -2.540434   -3.447536    2.037412
 ---------------------------------------------------------------------

 The electronic state is 1-A.
 Alpha  occ. eigenvalues --  -19.21975 -19.21792 -19.19576 -19.19508 -19.17730
 Alpha  occ. eigenvalues --  -19.17251 -19.16179 -19.15713 -19.14884 -19.14209
 Alpha  occ. eigenvalues --  -19.13896 -10.33566 -10.32732 -10.31873 -10.28020
 Alpha  occ. eigenvalues --  -10.27006 -10.26955 -10.26844 -10.25503 -10.25045
 Alpha  occ. eigenvalues --  -10.24502 -10.24383 -10.22409 -10.21615 -10.21265
 Alpha  occ. eigenvalues --  -10.21044 -10.21002 -10.20982 -10.20967 -10.20635
 Alpha  occ. eigenvalues --  -10.20286 -10.19930 -10.19837 -10.19080  -1.12525
 Alpha  occ. eigenvalues --   -1.12375  -1.10485  -1.07779  -1.06608  -1.06164
 Alpha  occ. eigenvalues --   -1.03856  -1.03219  -1.02781  -1.01686  -1.01575
 Alpha  occ. eigenvalues --   -0.87774  -0.86014  -0.84556  -0.80772  -0.79097
 Alpha  occ. eigenvalues --   -0.76977  -0.76308  -0.76104  -0.74650  -0.72216
 Alpha  occ. eigenvalues --   -0.70742  -0.68935  -0.66314  -0.65979  -0.64153
 Alpha  occ. eigenvalues --   -0.63935  -0.62673  -0.61362  -0.58984  -0.57935
 Alpha  occ. eigenvalues --   -0.57183  -0.55876  -0.55071  -0.54266  -0.53315
 Alpha  occ. eigenvalues --   -0.52464  -0.51778  -0.50924  -0.49865  -0.49662
 Alpha  occ. eigenvalues --   -0.49052  -0.48789  -0.48443  -0.47919  -0.47221
 Alpha  occ. eigenvalues --   -0.47046  -0.46263  -0.45748  -0.45347  -0.44833
 Alpha  occ. eigenvalues --   -0.44517  -0.43714  -0.43624  -0.43161  -0.42477
 Alpha  occ. eigenvalues --   -0.42366  -0.41958  -0.41513  -0.41157  -0.41098
 Alpha  occ. eigenvalues --   -0.40629  -0.40270  -0.39925  -0.39816  -0.39330
 Alpha  occ. eigenvalues --   -0.38827  -0.38360  -0.37662  -0.37531  -0.37335
 Alpha  occ. eigenvalues --   -0.36238  -0.35551  -0.35440  -0.35031  -0.34784
 Alpha  occ. eigenvalues --   -0.33780  -0.33524  -0.33351  -0.32895  -0.30530
 Alpha  occ. eigenvalues --   -0.30311  -0.28671  -0.28498  -0.28365  -0.27647
 Alpha  occ. eigenvalues --   -0.27542  -0.26356  -0.26058  -0.23438  -0.21738
 Alpha virt. eigenvalues --   -0.04667  -0.04582  -0.02803  -0.01784   0.03883
 Alpha virt. eigenvalues --    0.05258   0.05747   0.06299   0.06506   0.07439
 Alpha virt. eigenvalues --    0.08072   0.09402   0.10331   0.11006   0.11158

 Mulliken atomic charges:
              1
     1  C    0.109918
     2  C    0.300443
     3  C   -0.274696
     4  C    0.141923
     5  C   -0.062617
     6  C    0.238933
     7  C    0.051978
     8  C    0.276202
     9  O   -0.498358
    10  C    0.597901
    11  C   -0.367730
    12  C    0.240750
    13  C   -0.307402
    14  C   -0.358095
    15  C   -0.585859
    16  O   -0.660007
    17  O   -0.636775
    18  O   -0.537398
    19  O   -0.548592
    20  C    0.130087
    21  C    0.093305
    22  C    0.108712
    23  C   -0.158703
    24  C    0.057173
    25  C   -0.363172
    26  O   -0.654090
    27  O   -0.638089
    28  C    0.603489
    29  O   -0.464775
    30  O   -0.492917
    31  C   -0.216751
    32  C    0.595014
    33  O   -0.575020
    34  O   -0.457954
    35  H    0.148686
    36  H    0.166004
    37  H    0.195190
    38  H    0.160529
    39  H    0.169377
    40  H    0.188739
    41  H    0.174744
    42  H    0.209350
    43  H    0.161656
    44  H    0.161557
    45  H    0.449002
    46  H    0.422094
    47  H    0.135291
    48  H    0.142678
    49  H    0.140762
    50  H    0.178616
    51  H    0.171636
    52  H    0.186155
    53  H    0.414527
    54  H    0.408773
    55  H    0.166607
    56  H    0.172598
    57  H    0.169798
    58  H    0.418805
 Sum of Mulliken atomic charges =   0.00000

 Dipole moment (field-independent basis, Debye):
    X=             -1.2368    Y=             -2.4633    Z=              0.9100  Tot=              2.9027
 Quadrupole moment (field-independent basis, Debye-Ang):
   XX=           -173.1750   YY=           -208.2683   ZZ=           -187.6506
   XY=            -15.5821   XZ=            -18.3140   YZ=             -5.8693

 Normal termination of Gaussian 09 at Tue Feb  2 12:36:39 2021.
