 Gaussian 09, Revision B.01,
 Gaussian 09:  EM64L-G09RevB.01 12-Aug-2010

 --------------------------------------
 # opt b3lyp/6-31g(d) geom=connectivity
 --------------------------------------

 -------------------
 Title Card Required
 -------------------
 Symbolic Z-matrix:
 Charge =  0 Multiplicity = 1

 SCF Done:  E(RB3LYP) =  -1718.35458001     A.U. after   15 cycles
 SCF Done:  E(RB3LYP) =  -1718.36721020     A.U. after   13 cycles
 SCF Done:  E(RB3LYP) =  -1718.36917762     A.U. after   13 cycles
 SCF Done:  E(RB3LYP) =  -1718.36854671     A.U. after   16 cycles
 SCF Done:  E(RB3LYP) =  -1718.36989042     A.U. after   16 cycles
 SCF Done:  E(RB3LYP) =  -1718.37040214     A.U. after   12 cycles
 SCF Done:  E(RB3LYP) =  -1718.36980834     A.U. after   12 cycles
 SCF Done:  E(RB3LYP) =  -1718.37065440     A.U. after   12 cycles
 SCF Done:  E(RB3LYP) =  -1718.37068277     A.U. after   11 cycles
 SCF Done:  E(RB3LYP) =  -1718.37069355     A.U. after   12 cycles
 SCF Done:  E(RB3LYP) =  -1718.37071418     A.U. after   10 cycles
 SCF Done:  E(RB3LYP) =  -1718.37072402     A.U. after   11 cycles
 SCF Done:  E(RB3LYP) =  -1718.37072458     A.U. after   12 cycles
 SCF Done:  E(RB3LYP) =  -1718.37073579     A.U. after   10 cycles
 SCF Done:  E(RB3LYP) =  -1718.37073757     A.U. after   10 cycles
 SCF Done:  E(RB3LYP) =  -1718.37073883     A.U. after    9 cycles
 SCF Done:  E(RB3LYP) =  -1718.37074024     A.U. after    9 cycles
 SCF Done:  E(RB3LYP) =  -1718.37074056     A.U. after    7 cycles
 SCF Done:  E(RB3LYP) =  -1718.37074055     A.U. after    7 cycles
 Optimization completed.
    -- Stationary point found.

                         Standard orientation:
 ---------------------------------------------------------------------
 Center     Atomic      Atomic             Coordinates (Angstroms)
 Number     Number       Type             X           Y           Z
 ---------------------------------------------------------------------
      1          6           0        5.714022   -0.455244   -1.278893
      2          6           0        4.789026   -1.491508   -1.491342
      3          6           0        3.535230   -1.528821   -0.870163
      4          6           0        3.166575   -0.506703    0.001718
      5          6           0        4.078739    0.556268    0.246926
      6          6           0        5.347107    0.573150   -0.399221
      7          6           0        1.883306   -0.469859    0.689576
      8          6           0        1.627805    0.545612    1.543652
      9          8           0        2.514228    1.567446    1.771723
     10          6           0        3.739422    1.626329    1.153483
     11          6           0        0.870320   -1.574595    0.476049
     12          6           0       -0.554827   -1.223345    0.973125
     13          6           0       -0.466154   -0.562992    2.365827
     14          6           0        0.366352    0.724011    2.331934
     15          6           0        7.054150   -0.449776   -1.972574
     16          8           0        6.223140    1.568148   -0.185627
     17          8           0        5.072762   -2.526575   -2.326715
     18          8           0        4.452175    2.589806    1.430428
     19          8           0       -1.080806   -0.372877   -0.042844
     20          6           0       -2.288505    0.384586    0.144165
     21          6           0       -2.092091    1.652536   -0.692943
     22          6           0       -3.239987    2.629478   -0.459433
     23          6           0       -4.562799    1.938113   -0.610523
     24          6           0       -4.711236    0.606511   -0.529912
     25          6           0       -3.556130   -0.353955   -0.312804
     26          8           0       -0.890005    2.337975   -0.363570
     27          8           0       -3.186177    3.719522   -1.369641
     28          6           0       -6.094915    0.066132   -0.694038
     29          8           0       -6.109004   -1.287729   -0.652050
     30          8           0       -7.098479    0.732891   -0.852636
     31          6           0       -7.399759   -1.891635   -0.823763
     32          6           0       -1.332892   -2.554528    1.012859
     33          8           0       -1.043091   -3.274023    2.127530
     34          8           0       -2.068380   -2.967615    0.148616
     35          1           0        2.882502   -2.364554   -1.089032
     36          1           0        1.213365   -2.492000    0.971786
     37          1           0        0.781055   -1.804186   -0.591161
     38          1           0       -0.003399   -1.287567    3.041564
     39          1           0       -1.461684   -0.359883    2.774090
     40          1           0       -0.200737    1.556088    1.895519
     41          1           0        0.627963    1.027978    3.352469
     42          1           0        7.622743    0.436704   -1.689001
     43          1           0        7.660369   -1.327247   -1.704346
     44          1           0        6.950288   -0.435495   -3.067276
     45          1           0        5.798943    2.197878    0.456468
     46          1           0        5.957856   -2.403515   -2.704107
     47          1           0       -2.387620    0.680759    1.195996
     48          1           0       -2.090168    1.373630   -1.758132
     49          1           0       -3.149410    3.006904    0.576628
     50          1           0       -5.432034    2.565995   -0.785257
     51          1           0       -3.840069   -1.122760    0.409364
     52          1           0       -3.333502   -0.898958   -1.237928
     53          1           0       -0.169614    1.700587   -0.503498
     54          1           0       -2.289302    4.085628   -1.289802
     55          1           0       -7.228000   -2.967325   -0.773982
     56          1           0       -8.082021   -1.572234   -0.031231
     57          1           0       -7.827539   -1.613576   -1.790628
     58          1           0       -1.527455   -4.117188    2.037550
 ---------------------------------------------------------------------

 The electronic state is 1-A.
 Alpha  occ. eigenvalues --  -19.22248 -19.21883 -19.19821 -19.19236 -19.17546
 Alpha  occ. eigenvalues --  -19.17524 -19.16122 -19.16050 -19.14479 -19.14463
 Alpha  occ. eigenvalues --  -19.13058 -10.33832 -10.33009 -10.31253 -10.28486
 Alpha  occ. eigenvalues --  -10.27384 -10.27251 -10.27158 -10.25368 -10.24636
 Alpha  occ. eigenvalues --  -10.24222 -10.23994 -10.22767 -10.21845 -10.21693
 Alpha  occ. eigenvalues --  -10.21425 -10.21151 -10.20951 -10.20939 -10.20576
 Alpha  occ. eigenvalues --  -10.20222 -10.20073 -10.19449 -10.19409  -1.12778
 Alpha  occ. eigenvalues --   -1.12664  -1.09948  -1.08090  -1.06890  -1.06209
 Alpha  occ. eigenvalues --   -1.03853  -1.03239  -1.03070  -1.01372  -1.00913
 Alpha  occ. eigenvalues --   -0.88103  -0.86152  -0.84279  -0.81064  -0.79337
 Alpha  occ. eigenvalues --   -0.77329  -0.76449  -0.76039  -0.74383  -0.71792
 Alpha  occ. eigenvalues --   -0.71084  -0.69043  -0.66648  -0.66266  -0.64467
 Alpha  occ. eigenvalues --   -0.63556  -0.62603  -0.61682  -0.58929  -0.57814
 Alpha  occ. eigenvalues --   -0.57499  -0.55520  -0.55347  -0.53718  -0.53209
 Alpha  occ. eigenvalues --   -0.52187  -0.51493  -0.51182  -0.50259  -0.49610
 Alpha  occ. eigenvalues --   -0.49062  -0.48635  -0.48082  -0.47867  -0.47501
 Alpha  occ. eigenvalues --   -0.47047  -0.46454  -0.45972  -0.45686  -0.44981
 Alpha  occ. eigenvalues --   -0.44077  -0.43925  -0.43480  -0.43412  -0.42599
 Alpha  occ. eigenvalues --   -0.42326  -0.42108  -0.41827  -0.41466  -0.41118
 Alpha  occ. eigenvalues --   -0.40517  -0.40123  -0.39985  -0.39799  -0.39529
 Alpha  occ. eigenvalues --   -0.39024  -0.38197  -0.37858  -0.37534  -0.37336
 Alpha  occ. eigenvalues --   -0.35889  -0.35699  -0.35406  -0.35308  -0.34950
 Alpha  occ. eigenvalues --   -0.34135  -0.33869  -0.32928  -0.32606  -0.30121
 Alpha  occ. eigenvalues --   -0.29970  -0.28841  -0.28545  -0.28154  -0.27901
 Alpha  occ. eigenvalues --   -0.26849  -0.26601  -0.25419  -0.23741  -0.22062
 Alpha virt. eigenvalues --   -0.04875  -0.04013  -0.03100  -0.01503   0.03614
 Alpha virt. eigenvalues --    0.05234   0.05478   0.06090   0.06432   0.07364
 Alpha virt. eigenvalues --    0.07721   0.09741   0.10416   0.10592   0.11418

 Mulliken atomic charges:
              1
     1  C    0.109999
     2  C    0.300946
     3  C   -0.273286
     4  C    0.142880
     5  C   -0.062387
     6  C    0.239912
     7  C    0.053525
     8  C    0.275575
     9  O   -0.496894
    10  C    0.599262
    11  C   -0.375301
    12  C    0.255108
    13  C   -0.316881
    14  C   -0.360608
    15  C   -0.585896
    16  O   -0.659072
    17  O   -0.637459
    18  O   -0.535457
    19  O   -0.551532
    20  C    0.121813
    21  C    0.093710
    22  C    0.107066
    23  C   -0.150824
    24  C    0.052709
    25  C   -0.337796
    26  O   -0.654701
    27  O   -0.636817
    28  C    0.594141
    29  O   -0.463576
    30  O   -0.491245
    31  C   -0.216855
    32  C    0.574535
    33  O   -0.573405
    34  O   -0.453911
    35  H    0.142751
    36  H    0.175422
    37  H    0.187527
    38  H    0.179686
    39  H    0.158037
    40  H    0.197226
    41  H    0.175639
    42  H    0.210072
    43  H    0.162091
    44  H    0.162097
    45  H    0.449512
    46  H    0.422599
    47  H    0.131624
    48  H    0.142237
    49  H    0.137895
    50  H    0.183381
    51  H    0.165906
    52  H    0.185306
    53  H    0.412932
    54  H    0.407738
    55  H    0.164549
    56  H    0.170007
    57  H    0.172845
    58  H    0.415643
 Sum of Mulliken atomic charges =   0.00000

 Dipole moment (field-independent basis, Debye):
    X=              1.6707    Y=             -6.0695    Z=              1.3160  Tot=              6.4313
 Quadrupole moment (field-independent basis, Debye-Ang):
   XX=           -201.6899   YY=           -197.2949   ZZ=           -187.9369
   XY=              3.8843   XZ=            -24.2301   YZ=             -3.7277

 Normal termination of Gaussian 09 at Tue Feb  2 11:36:48 2021.
