 Gaussian 09, Revision B.01,
 Gaussian 09:  EM64L-G09RevB.01 12-Aug-2010

 --------------------------------------
 # opt b3lyp/6-31g(d) geom=connectivity
 --------------------------------------

 -------------------
 Title Card Required
 -------------------
 Symbolic Z-matrix:
 Charge =  0 Multiplicity = 1

 SCF Done:  E(RB3LYP) =  -1718.35479458     A.U. after   15 cycles
 SCF Done:  E(RB3LYP) =  -1718.36734569     A.U. after   13 cycles
 SCF Done:  E(RB3LYP) =  -1718.36932662     A.U. after   13 cycles
 SCF Done:  E(RB3LYP) =  -1718.36830859     A.U. after   13 cycles
 SCF Done:  E(RB3LYP) =  -1718.36980773     A.U. after   12 cycles
 SCF Done:  E(RB3LYP) =  -1718.37019211     A.U. after   12 cycles
 SCF Done:  E(RB3LYP) =  -1718.37026325     A.U. after   12 cycles
 SCF Done:  E(RB3LYP) =  -1718.37029517     A.U. after   11 cycles
 SCF Done:  E(RB3LYP) =  -1718.37035260     A.U. after   11 cycles
 SCF Done:  E(RB3LYP) =  -1718.37035747     A.U. after   10 cycles
 SCF Done:  E(RB3LYP) =  -1718.37042191     A.U. after   11 cycles
 SCF Done:  E(RB3LYP) =  -1718.37042702     A.U. after   10 cycles
 SCF Done:  E(RB3LYP) =  -1718.37043772     A.U. after    9 cycles
 SCF Done:  E(RB3LYP) =  -1718.37044449     A.U. after    9 cycles
 SCF Done:  E(RB3LYP) =  -1718.37044503     A.U. after    9 cycles
 SCF Done:  E(RB3LYP) =  -1718.37044527     A.U. after    6 cycles
 SCF Done:  E(RB3LYP) =  -1718.37044544     A.U. after    7 cycles
 SCF Done:  E(RB3LYP) =  -1718.37044549     A.U. after    6 cycles
 SCF Done:  E(RB3LYP) =  -1718.37044551     A.U. after    6 cycles
 SCF Done:  E(RB3LYP) =  -1718.37044551     A.U. after    5 cycles
 Optimization completed.
    -- Stationary point found.

                         Standard orientation:
 ---------------------------------------------------------------------
 Center     Atomic      Atomic             Coordinates (Angstroms)
 Number     Number       Type             X           Y           Z
 ---------------------------------------------------------------------
      1          6           0        5.979677    1.515133    0.685159
      2          6           0        4.786780    2.006736    1.237037
      3          6           0        3.546148    1.385253    1.048134
      4          6           0        3.461209    0.224598    0.279216
      5          6           0        4.648011   -0.305623   -0.292967
      6          6           0        5.898883    0.347314   -0.084954
      7          6           0        2.211084   -0.480753    0.035705
      8          6           0        2.237267   -1.613503   -0.701337
      9          8           0        3.385302   -2.116826   -1.254746
     10          6           0        4.606847   -1.507301   -1.090711
     11          6           0        0.908162    0.034657    0.608422
     12          6           0       -0.336522   -0.573379   -0.053737
     13          6           0       -0.171347   -2.096286   -0.180405
     14          6           0        1.049596   -2.466507   -1.033260
     15          6           0        7.286302    2.227104    0.918256
     16          8           0        7.030452   -0.138399   -0.620838
     17          8           0        4.899150    3.142113    1.981540
     18          8           0        5.567361   -2.046218   -1.637442
     19          8           0       -1.415757   -0.219922    0.829925
     20          6           0       -2.776075   -0.507653    0.454862
     21          6           0       -3.462513   -1.063763    1.702848
     22          6           0       -4.884865   -1.506152    1.370867
     23          6           0       -5.621955   -0.436199    0.615850
     24          6           0       -5.005043    0.567293   -0.028694
     25          6           0       -3.500701    0.756386   -0.021764
     26          8           0       -2.787773   -2.199381    2.229007
     27          8           0       -5.619800   -1.822158    2.545905
     28          6           0       -5.767662    1.589955   -0.799779
     29          8           0       -7.107832    1.428439   -0.728185
     30          8           0       -5.238479    2.484546   -1.432625
     31          6           0       -7.881309    2.396395   -1.453482
     32          6           0       -0.565890    0.134223   -1.413198
     33          8           0       -1.229728   -0.645932   -2.303853
     34          8           0       -0.246969    1.272412   -1.663038
     35          1           0        2.660007    1.817155    1.503331
     36          1           0        0.847295    1.120022    0.493967
     37          1           0        0.845221   -0.181155    1.683145
     38          1           0       -1.067548   -2.562273   -0.595460
     39          1           0       -0.045007   -2.486289    0.836622
     40          1           0        1.315136   -3.519214   -0.878590
     41          1           0        0.819036   -2.368910   -2.102639
     42          1           0        8.093447    1.733866    0.375506
     43          1           0        7.227271    3.271698    0.591411
     44          1           0        7.541405    2.244397    1.984808
     45          1           0        6.786986   -0.954357   -1.131370
     46          1           0        4.019678    3.405692    2.295080
     47          1           0       -2.797714   -1.273985   -0.328002
     48          1           0       -3.520531   -0.266495    2.460761
     49          1           0       -4.808698   -2.403409    0.728452
     50          1           0       -6.703929   -0.520875    0.598669
     51          1           0       -3.164265    1.058688   -1.017511
     52          1           0       -3.233693    1.588064    0.644160
     53          1           0       -1.886589   -1.902650    2.434906
     54          1           0       -5.078500   -2.468586    3.029416
     55          1           0       -8.923007    2.121628   -1.285440
     56          1           0       -7.683963    3.404508   -1.079336
     57          1           0       -7.641004    2.361065   -2.519545
     58          1           0       -1.364931   -0.095536   -3.099948
 ---------------------------------------------------------------------

 The electronic state is 1-A.
 Alpha  occ. eigenvalues --  -19.22307 -19.21999 -19.19730 -19.19576 -19.18158
 Alpha  occ. eigenvalues --  -19.16816 -19.16475 -19.16359 -19.15206 -19.14137
 Alpha  occ. eigenvalues --  -19.14047 -10.34115 -10.32674 -10.32030 -10.28335
 Alpha  occ. eigenvalues --  -10.27179 -10.26713 -10.26544 -10.25629 -10.25339
 Alpha  occ. eigenvalues --  -10.24768 -10.24523 -10.22498 -10.21812 -10.21542
 Alpha  occ. eigenvalues --  -10.21484 -10.21208 -10.21192 -10.21061 -10.20582
 Alpha  occ. eigenvalues --  -10.20160 -10.19651 -10.19608 -10.17574  -1.13071
 Alpha  occ. eigenvalues --   -1.12393  -1.10637  -1.07727  -1.06378  -1.06243
 Alpha  occ. eigenvalues --   -1.04187  -1.03822  -1.02727  -1.02037  -1.01734
 Alpha  occ. eigenvalues --   -0.87932  -0.86222  -0.84906  -0.80633  -0.79113
 Alpha  occ. eigenvalues --   -0.76941  -0.76355  -0.75492  -0.74702  -0.72337
 Alpha  occ. eigenvalues --   -0.69917  -0.69131  -0.66635  -0.65740  -0.64699
 Alpha  occ. eigenvalues --   -0.64235  -0.62860  -0.61364  -0.59145  -0.58315
 Alpha  occ. eigenvalues --   -0.56992  -0.56008  -0.54803  -0.54386  -0.53780
 Alpha  occ. eigenvalues --   -0.52656  -0.51768  -0.51417  -0.50757  -0.49264
 Alpha  occ. eigenvalues --   -0.49077  -0.48622  -0.48154  -0.48002  -0.47629
 Alpha  occ. eigenvalues --   -0.47123  -0.46372  -0.45743  -0.45485  -0.44550
 Alpha  occ. eigenvalues --   -0.43966  -0.43916  -0.43775  -0.43529  -0.43194
 Alpha  occ. eigenvalues --   -0.42612  -0.42365  -0.41505  -0.41367  -0.40767
 Alpha  occ. eigenvalues --   -0.40427  -0.40077  -0.39485  -0.39134  -0.38775
 Alpha  occ. eigenvalues --   -0.38543  -0.38272  -0.37811  -0.37498  -0.37087
 Alpha  occ. eigenvalues --   -0.36433  -0.35635  -0.35384  -0.34983  -0.34866
 Alpha  occ. eigenvalues --   -0.34244  -0.33781  -0.33671  -0.33477  -0.30684
 Alpha  occ. eigenvalues --   -0.30639  -0.29111  -0.28828  -0.28278  -0.27805
 Alpha  occ. eigenvalues --   -0.27602  -0.26318  -0.26148  -0.23458  -0.21516
 Alpha virt. eigenvalues --   -0.04892  -0.04658  -0.02727  -0.02262   0.03769
 Alpha virt. eigenvalues --    0.04682   0.05317   0.05502   0.06710   0.06967
 Alpha virt. eigenvalues --    0.08632   0.09265   0.10157   0.10346   0.10759

 Mulliken atomic charges:
              1
     1  C    0.099044
     2  C    0.321327
     3  C   -0.300562
     4  C    0.135105
     5  C   -0.060958
     6  C    0.239206
     7  C    0.061040
     8  C    0.281660
     9  O   -0.498939
    10  C    0.597047
    11  C   -0.377226
    12  C    0.257389
    13  C   -0.294597
    14  C   -0.363186
    15  C   -0.517825
    16  O   -0.655795
    17  O   -0.633802
    18  O   -0.535130
    19  O   -0.560547
    20  C    0.113827
    21  C    0.095147
    22  C    0.108355
    23  C   -0.159055
    24  C    0.055725
    25  C   -0.348994
    26  O   -0.656501
    27  O   -0.637527
    28  C    0.601613
    29  O   -0.465233
    30  O   -0.489577
    31  C   -0.216863
    32  C    0.600770
    33  O   -0.578768
    34  O   -0.456035
    35  H    0.123874
    36  H    0.191987
    37  H    0.160864
    38  H    0.171342
    39  H    0.149426
    40  H    0.179064
    41  H    0.183469
    42  H    0.184042
    43  H    0.166145
    44  H    0.164871
    45  H    0.447832
    46  H    0.414865
    47  H    0.152037
    48  H    0.137276
    49  H    0.141207
    50  H    0.178844
    51  H    0.174687
    52  H    0.176469
    53  H    0.405885
    54  H    0.407459
    55  H    0.166561
    56  H    0.172732
    57  H    0.170280
    58  H    0.418645
 Sum of Mulliken atomic charges =   0.00000

 Dipole moment (field-independent basis, Debye):
    X=             -4.6669    Y=              0.0219    Z=              1.2651  Tot=              4.8354
 Quadrupole moment (field-independent basis, Debye-Ang):
   XX=           -217.8257   YY=           -196.2966   ZZ=           -187.9853
   XY=              6.2486   XZ=             20.4537   YZ=              4.1040

 Normal termination of Gaussian 09 at Tue Feb  2 12:22:15 2021.
