 Gaussian 09, Revision B.01,
 Gaussian 09:  EM64L-G09RevB.01 12-Aug-2010

 --------------------------------------
 # opt b3lyp/6-31g(d) geom=connectivity
 --------------------------------------

 -------------------
 Title Card Required
 -------------------
 Symbolic Z-matrix:
 Charge =  0 Multiplicity = 1

 SCF Done:  E(RB3LYP) =  -1718.35449305     A.U. after   15 cycles
 SCF Done:  E(RB3LYP) =  -1718.36688246     A.U. after   13 cycles
 SCF Done:  E(RB3LYP) =  -1718.36866314     A.U. after   13 cycles
 SCF Done:  E(RB3LYP) =  -1718.36917813     A.U. after   13 cycles
 SCF Done:  E(RB3LYP) =  -1718.36757857     A.U. after   14 cycles
 SCF Done:  E(RB3LYP) =  -1718.36934486     A.U. after   13 cycles
 SCF Done:  E(RB3LYP) =  -1718.36915031     A.U. after   13 cycles
 SCF Done:  E(RB3LYP) =  -1718.36938778     A.U. after   12 cycles
 SCF Done:  E(RB3LYP) =  -1718.36962314     A.U. after   12 cycles
 SCF Done:  E(RB3LYP) =  -1718.36972575     A.U. after   12 cycles
 SCF Done:  E(RB3LYP) =  -1718.36972748     A.U. after   11 cycles
 SCF Done:  E(RB3LYP) =  -1718.36976835     A.U. after   10 cycles
 SCF Done:  E(RB3LYP) =  -1718.36977682     A.U. after   10 cycles
 SCF Done:  E(RB3LYP) =  -1718.36977880     A.U. after   10 cycles
 SCF Done:  E(RB3LYP) =  -1718.36978315     A.U. after   10 cycles
 SCF Done:  E(RB3LYP) =  -1718.36978373     A.U. after   10 cycles
 SCF Done:  E(RB3LYP) =  -1718.36978468     A.U. after    8 cycles
 SCF Done:  E(RB3LYP) =  -1718.36978511     A.U. after    7 cycles
 SCF Done:  E(RB3LYP) =  -1718.36978524     A.U. after    7 cycles
 Optimization completed.
    -- Stationary point found.

                         Standard orientation:
 ---------------------------------------------------------------------
 Center     Atomic      Atomic             Coordinates (Angstroms)
 Number     Number       Type             X           Y           Z
 ---------------------------------------------------------------------
      1          6           0        4.470272   -0.731897   -0.989342
      2          6           0        3.545166   -1.637517   -1.537355
      3          6           0        2.270766   -1.840623   -0.996230
      4          6           0        1.883280   -1.134097    0.140814
      5          6           0        2.798400   -0.222807    0.734021
      6          6           0        4.082070   -0.020136    0.153940
      7          6           0        0.571437   -1.270860    0.755967
      8          6           0        0.309806   -0.594364    1.895461
      9          8           0        1.213583    0.255281    2.480256
     10          6           0        2.437710    0.515249    1.919461
     11          6           0       -0.496717   -2.120960    0.106241
     12          6           0       -1.918548   -1.813503    0.622487
     13          6           0       -1.890881   -1.769605    2.167394
     14          6           0       -0.977994   -0.639554    2.659267
     15          6           0        5.830853   -0.532680   -1.611253
     16          8           0        4.950924    0.860019    0.681262
     17          8           0        3.848880   -2.368752   -2.643044
     18          8           0        3.138835    1.355279    2.485126
     19          8           0       -2.419196   -0.537937    0.234722
     20          6           0       -2.402390   -0.136046   -1.153684
     21          6           0       -3.774553    0.486305   -1.448003
     22          6           0       -4.041089    1.694126   -0.523170
     23          6           0       -2.817096    2.545870   -0.298948
     24          6           0       -1.575639    2.187358   -0.662433
     25          6           0       -1.289279    0.890914   -1.391194
     26          8           0       -3.727418    0.863702   -2.822727
     27          8           0       -4.587979    1.277883    0.728627
     28          6           0       -0.462146    3.119038   -0.305685
     29          8           0        0.751940    2.598449   -0.609157
     30          8           0       -0.602224    4.213600    0.203497
     31          6           0        1.876290    3.432000   -0.275258
     32          6           0       -2.857442   -2.962180    0.208064
     33          8           0       -4.105246   -2.546154   -0.097439
     34          8           0       -2.537628   -4.130963    0.208004
     35          1           0        1.620222   -2.559168   -1.479366
     36          1           0       -0.310156   -3.188378    0.268032
     37          1           0       -0.466232   -1.977886   -0.979612
     38          1           0       -1.534835   -2.740064    2.528903
     39          1           0       -2.907134   -1.625656    2.549487
     40          1           0       -1.478577    0.331976    2.564833
     41          1           0       -0.756397   -0.771137    3.725420
     42          1           0        5.760947   -0.182150   -2.651264
     43          1           0        6.395424    0.215462   -1.053457
     44          1           0        6.424040   -1.458684   -1.608554
     45          1           0        4.511130    1.258950    1.479373
     46          1           0        4.748776   -2.154340   -2.934730
     47          1           0       -2.267297   -1.008215   -1.802688
     48          1           0       -4.558110   -0.258516   -1.262733
     49          1           0       -4.826986    2.307887   -0.985968
     50          1           0       -2.960077    3.477010    0.242936
     51          1           0       -1.215622    1.078406   -2.469911
     52          1           0       -0.326672    0.485888   -1.075446
     53          1           0       -4.591212    1.236330   -3.057441
     54          1           0       -3.954569    0.623667    1.072293
     55          1           0        2.754242    2.899605   -0.641913
     56          1           0        1.783800    4.408600   -0.756708
     57          1           0        1.941397    3.568190    0.807196
     58          1           0       -4.615531   -3.355220   -0.295074
 ---------------------------------------------------------------------

 The electronic state is 1-A.
 Alpha  occ. eigenvalues --  -19.22213 -19.22068 -19.19798 -19.18823 -19.17892
 Alpha  occ. eigenvalues --  -19.17608 -19.16163 -19.15918 -19.14507 -19.14015
 Alpha  occ. eigenvalues --  -19.12605 -10.33985 -10.33000 -10.30815 -10.28519
 Alpha  occ. eigenvalues --  -10.27243 -10.27223 -10.27138 -10.25490 -10.24248
 Alpha  occ. eigenvalues --  -10.24161 -10.23201 -10.22659 -10.21612 -10.21418
 Alpha  occ. eigenvalues --  -10.21367 -10.21304 -10.20879 -10.20581 -10.20409
 Alpha  occ. eigenvalues --  -10.20116 -10.19481 -10.19400 -10.19165  -1.13005
 Alpha  occ. eigenvalues --   -1.12663  -1.09410  -1.08071  -1.06915  -1.06106
 Alpha  occ. eigenvalues --   -1.03745  -1.03322  -1.03032  -1.01359  -1.00426
 Alpha  occ. eigenvalues --   -0.88020  -0.86090  -0.83394  -0.81031  -0.78817
 Alpha  occ. eigenvalues --   -0.77310  -0.76473  -0.75331  -0.74198  -0.71396
 Alpha  occ. eigenvalues --   -0.71055  -0.69326  -0.66565  -0.66171  -0.64764
 Alpha  occ. eigenvalues --   -0.63774  -0.62206  -0.61635  -0.59348  -0.57828
 Alpha  occ. eigenvalues --   -0.57391  -0.55851  -0.55329  -0.53955  -0.52391
 Alpha  occ. eigenvalues --   -0.51249  -0.50967  -0.50505  -0.49866  -0.49589
 Alpha  occ. eigenvalues --   -0.49465  -0.48172  -0.48001  -0.47292  -0.47052
 Alpha  occ. eigenvalues --   -0.46825  -0.46223  -0.45782  -0.45670  -0.44978
 Alpha  occ. eigenvalues --   -0.44752  -0.43997  -0.43408  -0.43066  -0.42423
 Alpha  occ. eigenvalues --   -0.42353  -0.42097  -0.41631  -0.41433  -0.40985
 Alpha  occ. eigenvalues --   -0.40653  -0.40099  -0.39982  -0.39256  -0.39004
 Alpha  occ. eigenvalues --   -0.38603  -0.37880  -0.37702  -0.37569  -0.37068
 Alpha  occ. eigenvalues --   -0.36600  -0.35930  -0.35350  -0.34987  -0.34424
 Alpha  occ. eigenvalues --   -0.34242  -0.33914  -0.33302  -0.32659  -0.30306
 Alpha  occ. eigenvalues --   -0.29646  -0.29335  -0.28682  -0.27484  -0.26845
 Alpha  occ. eigenvalues --   -0.26565  -0.26257  -0.25081  -0.23703  -0.22005
 Alpha virt. eigenvalues --   -0.04837  -0.03761  -0.03090  -0.01715   0.03696
 Alpha virt. eigenvalues --    0.04694   0.05463   0.05623   0.06036   0.07563
 Alpha virt. eigenvalues --    0.08224   0.09274   0.09761   0.10424   0.11410

 Mulliken atomic charges:
              1
     1  C    0.110218
     2  C    0.301065
     3  C   -0.272152
     4  C    0.142833
     5  C   -0.053195
     6  C    0.237364
     7  C    0.043861
     8  C    0.296165
     9  O   -0.497896
    10  C    0.610044
    11  C   -0.373123
    12  C    0.245605
    13  C   -0.307196
    14  C   -0.342180
    15  C   -0.586099
    16  O   -0.665642
    17  O   -0.637130
    18  O   -0.547859
    19  O   -0.550539
    20  C    0.095586
    21  C    0.085574
    22  C    0.075733
    23  C   -0.149059
    24  C    0.076531
    25  C   -0.339684
    26  O   -0.632707
    27  O   -0.637294
    28  C    0.587680
    29  O   -0.471474
    30  O   -0.490208
    31  C   -0.229055
    32  C    0.581159
    33  O   -0.559052
    34  O   -0.468533
    35  H    0.145172
    36  H    0.197126
    37  H    0.166482
    38  H    0.173249
    39  H    0.164012
    40  H    0.191810
    41  H    0.177204
    42  H    0.161576
    43  H    0.209104
    44  H    0.162935
    45  H    0.448921
    46  H    0.422497
    47  H    0.140699
    48  H    0.149322
    49  H    0.131289
    50  H    0.171768
    51  H    0.181571
    52  H    0.179067
    53  H    0.399163
    54  H    0.409709
    55  H    0.166417
    56  H    0.169963
    57  H    0.184959
    58  H    0.416645
 Sum of Mulliken atomic charges =   0.00000

 Dipole moment (field-independent basis, Debye):
    X=             -0.6093    Y=             -3.9406    Z=             -3.2916  Tot=              5.1706
 Quadrupole moment (field-independent basis, Debye-Ang):
   XX=           -172.1527   YY=           -210.0951   ZZ=           -191.1513
   XY=              3.9019   XZ=             -6.7827   YZ=             -8.9210

 Normal termination of Gaussian 09 at Tue Feb  2 12:16:56 2021.
