 Gaussian 09, Revision B.01,
 Gaussian 09:  EM64L-G09RevB.01 12-Aug-2010

 --------------------------------------
 # opt b3lyp/6-31g(d) geom=connectivity
 --------------------------------------

 -------------------
 Title Card Required
 -------------------
 Symbolic Z-matrix:
 Charge =  0 Multiplicity = 1

 SCF Done:  E(RB3LYP) =  -1718.35952538     A.U. after   15 cycles
 SCF Done:  E(RB3LYP) =  -1718.37021250     A.U. after   13 cycles
 SCF Done:  E(RB3LYP) =  -1718.36588490     A.U. after   13 cycles
 SCF Done:  E(RB3LYP) =  -1718.37255827     A.U. after   12 cycles
 SCF Done:  E(RB3LYP) =  -1718.37249959     A.U. after   13 cycles
 SCF Done:  E(RB3LYP) =  -1718.37371520     A.U. after   12 cycles
 SCF Done:  E(RB3LYP) =  -1718.37402894     A.U. after   12 cycles
 SCF Done:  E(RB3LYP) =  -1718.37379070     A.U. after   13 cycles
 SCF Done:  E(RB3LYP) =  -1718.37436994     A.U. after   12 cycles
 SCF Done:  E(RB3LYP) =  -1718.37438438     A.U. after   11 cycles
 SCF Done:  E(RB3LYP) =  -1718.37445624     A.U. after   12 cycles
 SCF Done:  E(RB3LYP) =  -1718.37446033     A.U. after    9 cycles
 SCF Done:  E(RB3LYP) =  -1718.37446473     A.U. after   10 cycles
 SCF Done:  E(RB3LYP) =  -1718.37446634     A.U. after    9 cycles
 SCF Done:  E(RB3LYP) =  -1718.37447180     A.U. after   11 cycles
 SCF Done:  E(RB3LYP) =  -1718.37434692     A.U. after   12 cycles
 SCF Done:  E(RB3LYP) =  -1718.37447377     A.U. after   12 cycles
 SCF Done:  E(RB3LYP) =  -1718.37447544     A.U. after    9 cycles
 SCF Done:  E(RB3LYP) =  -1718.37447596     A.U. after    9 cycles
 SCF Done:  E(RB3LYP) =  -1718.37447601     A.U. after    6 cycles
 Optimization completed.
    -- Stationary point found.

                         Standard orientation:
 ---------------------------------------------------------------------
 Center     Atomic      Atomic             Coordinates (Angstroms)
 Number     Number       Type             X           Y           Z
 ---------------------------------------------------------------------
      1          6           0       -4.582742    0.944598    1.041571
      2          6           0       -3.548812    0.697364    1.956972
      3          6           0       -2.435857   -0.097402    1.654437
      4          6           0       -2.323433   -0.682916    0.392683
      5          6           0       -3.352851   -0.459090   -0.559425
      6          6           0       -4.474054    0.356816   -0.225963
      7          6           0       -1.203166   -1.525607    0.000680
      8          6           0       -1.205859   -2.080926   -1.230776
      9          8           0       -2.201179   -1.859965   -2.144807
     10          6           0       -3.283640   -1.056852   -1.871013
     11          6           0       -0.067627   -1.792735    0.964499
     12          6           0        1.173508   -2.416174    0.302937
     13          6           0        0.746810   -3.541167   -0.657530
     14          6           0       -0.146282   -2.989301   -1.774121
     15          6           0       -5.756142    1.809498    1.420614
     16          8           0       -5.454842    0.580452   -1.115070
     17          8           0       -3.686185    1.279012    3.181519
     18          8           0       -4.111132   -0.925050   -2.770777
     19          8           0        1.915512   -1.501872   -0.516524
     20          6           0        2.400019   -0.266552    0.047566
     21          6           0        3.864631   -0.131398   -0.374686
     22          6           0        4.480246    1.128950    0.230245
     23          6           0        3.611453    2.330723   -0.005341
     24          6           0        2.304313    2.241391   -0.296843
     25          6           0        1.581613    0.920807   -0.474324
     26          8           0        4.661764   -1.219646    0.067682
     27          8           0        5.769903    1.383332   -0.311220
     28          6           0        1.458813    3.451939   -0.498382
     29          8           0        2.137630    4.612601   -0.357079
     30          8           0        0.272893    3.403009   -0.765595
     31          6           0        1.360763    5.803373   -0.557234
     32          6           0        2.109880   -2.971426    1.395877
     33          8           0        3.185720   -3.606252    0.862166
     34          8           0        1.951349   -2.861302    2.589865
     35          1           0       -1.676257   -0.258265    2.413872
     36          1           0       -0.398295   -2.461567    1.768662
     37          1           0        0.223973   -0.866205    1.469998
     38          1           0        0.204371   -4.300894   -0.081130
     39          1           0        1.634247   -4.017412   -1.081213
     40          1           0        0.457975   -2.441843   -2.508067
     41          1           0       -0.626773   -3.811948   -2.316646
     42          1           0       -5.429336    2.822846    1.682704
     43          1           0       -6.465915    1.874287    0.595245
     44          1           0       -6.273276    1.407240    2.299692
     45          1           0       -5.212681    0.095933   -1.947255
     46          1           0       -2.919375    1.050503    3.730072
     47          1           0        2.362094   -0.316171    1.144397
     48          1           0        3.905941   -0.040717   -1.471989
     49          1           0        4.563346    0.961444    1.320562
     50          1           0        4.092274    3.299103    0.090811
     51          1           0        0.599312    0.969361    0.005428
     52          1           0        1.375933    0.756932   -1.540669
     53          1           0        4.226262   -2.036761   -0.229514
     54          1           0        6.266686    0.554910   -0.202816
     55          1           0        2.053068    6.631773   -0.404272
     56          1           0        0.948788    5.828086   -1.569621
     57          1           0        0.537619    5.851368    0.160747
     58          1           0        3.749037   -3.870012    1.615047
 ---------------------------------------------------------------------

 The electronic state is 1-A.
 Alpha  occ. eigenvalues --  -19.22700 -19.21775 -19.19437 -19.19432 -19.18031
 Alpha  occ. eigenvalues --  -19.17077 -19.16602 -19.15681 -19.14893 -19.13897
 Alpha  occ. eigenvalues --  -19.13729 -10.34579 -10.32436 -10.31716 -10.28530
 Alpha  occ. eigenvalues --  -10.26927 -10.26542 -10.26338 -10.25763 -10.24996
 Alpha  occ. eigenvalues --  -10.24456 -10.24226 -10.22342 -10.21539 -10.21424
 Alpha  occ. eigenvalues --  -10.21403 -10.21183 -10.21120 -10.20928 -10.20355
 Alpha  occ. eigenvalues --  -10.20068 -10.19533 -10.19394 -10.17387  -1.13538
 Alpha  occ. eigenvalues --   -1.12166  -1.10332  -1.07579  -1.06274  -1.06033
 Alpha  occ. eigenvalues --   -1.04517  -1.03748  -1.02497  -1.01571  -1.01433
 Alpha  occ. eigenvalues --   -0.87688  -0.86050  -0.84562  -0.80635  -0.78942
 Alpha  occ. eigenvalues --   -0.76914  -0.76297  -0.75386  -0.74611  -0.72087
 Alpha  occ. eigenvalues --   -0.69753  -0.69480  -0.66458  -0.65401  -0.64413
 Alpha  occ. eigenvalues --   -0.63970  -0.62812  -0.61182  -0.59042  -0.58484
 Alpha  occ. eigenvalues --   -0.56775  -0.55746  -0.54909  -0.54333  -0.53588
 Alpha  occ. eigenvalues --   -0.52076  -0.51871  -0.51322  -0.50867  -0.49530
 Alpha  occ. eigenvalues --   -0.48519  -0.48334  -0.48217  -0.47856  -0.47583
 Alpha  occ. eigenvalues --   -0.46682  -0.46533  -0.45985  -0.45258  -0.44509
 Alpha  occ. eigenvalues --   -0.44274  -0.43920  -0.43541  -0.43435  -0.42836
 Alpha  occ. eigenvalues --   -0.42616  -0.42404  -0.41498  -0.40933  -0.40646
 Alpha  occ. eigenvalues --   -0.40390  -0.39579  -0.39208  -0.38947  -0.38488
 Alpha  occ. eigenvalues --   -0.38432  -0.38238  -0.37595  -0.37223  -0.37014
 Alpha  occ. eigenvalues --   -0.36121  -0.35610  -0.35392  -0.34940  -0.34707
 Alpha  occ. eigenvalues --   -0.34387  -0.33867  -0.33498  -0.33104  -0.31395
 Alpha  occ. eigenvalues --   -0.30367  -0.28973  -0.28386  -0.28057  -0.27483
 Alpha  occ. eigenvalues --   -0.27361  -0.25995  -0.25950  -0.23251  -0.21297
 Alpha virt. eigenvalues --   -0.04635  -0.04293  -0.02873  -0.02401   0.03918
 Alpha virt. eigenvalues --    0.04530   0.05517   0.06541   0.06988   0.07669
 Alpha virt. eigenvalues --    0.08103   0.09758   0.09978   0.10801   0.11231

 Mulliken atomic charges:
              1
     1  C    0.100217
     2  C    0.324129
     3  C   -0.307697
     4  C    0.139706
     5  C   -0.060011
     6  C    0.241416
     7  C    0.057447
     8  C    0.287741
     9  O   -0.500108
    10  C    0.598798
    11  C   -0.361624
    12  C    0.225161
    13  C   -0.303258
    14  C   -0.341883
    15  C   -0.517854
    16  O   -0.655845
    17  O   -0.634294
    18  O   -0.535278
    19  O   -0.541760
    20  C    0.100345
    21  C    0.105060
    22  C    0.110174
    23  C   -0.159128
    24  C    0.054184
    25  C   -0.350951
    26  O   -0.677616
    27  O   -0.639330
    28  C    0.602721
    29  O   -0.466329
    30  O   -0.487269
    31  C   -0.217020
    32  C    0.600581
    33  O   -0.583438
    34  O   -0.461127
    35  H    0.122728
    36  H    0.179682
    37  H    0.165668
    38  H    0.157087
    39  H    0.172029
    40  H    0.188952
    41  H    0.174747
    42  H    0.166268
    43  H    0.183970
    44  H    0.163901
    45  H    0.448009
    46  H    0.413952
    47  H    0.144288
    48  H    0.136818
    49  H    0.139979
    50  H    0.178452
    51  H    0.178997
    52  H    0.177998
    53  H    0.421055
    54  H    0.407788
    55  H    0.165614
    56  H    0.173203
    57  H    0.170934
    58  H    0.422022
 Sum of Mulliken atomic charges =   0.00000

 Dipole moment (field-independent basis, Debye):
    X=              4.1055    Y=             -2.0203    Z=              3.5730  Tot=              5.8055
 Quadrupole moment (field-independent basis, Debye-Ang):
   XX=           -216.8077   YY=           -170.7879   ZZ=           -197.4883
   XY=             -8.3576   XZ=             -9.1258   YZ=              1.4009

 Normal termination of Gaussian 09 at Tue Feb  2 12:41:26 2021.
