 Gaussian 09, Revision B.01,
 Gaussian 09:  EM64L-G09RevB.01 12-Aug-2010

 ---------------------------------------
 # opt rb3lyp/6-31g(d) geom=connectivity
 ---------------------------------------

 -------------------
 Title Card Required
 -------------------
 Symbolic Z-matrix:
 Charge =  0 Multiplicity = 1

 SCF Done:  E(RB3LYP) =  -1387.30193400     A.U. after   16 cycles
 SCF Done:  E(RB3LYP) =  -1387.31422178     A.U. after   13 cycles
 SCF Done:  E(RB3LYP) =  -1387.31628904     A.U. after   13 cycles
 SCF Done:  E(RB3LYP) =  -1387.31571989     A.U. after   13 cycles
 SCF Done:  E(RB3LYP) =  -1387.31701255     A.U. after   13 cycles
 SCF Done:  E(RB3LYP) =  -1387.31650017     A.U. after   13 cycles
 SCF Done:  E(RB3LYP) =  -1387.31668500     A.U. after   13 cycles
 SCF Done:  E(RB3LYP) =  -1387.31668519     A.U. after   13 cycles
 SCF Done:  E(RB3LYP) =  -1387.31679488     A.U. after   13 cycles
 SCF Done:  E(RB3LYP) =  -1387.31675727     A.U. after   13 cycles
 SCF Done:  E(RB3LYP) =  -1387.31721097     A.U. after   12 cycles
 SCF Done:  E(RB3LYP) =  -1387.31721214     A.U. after   10 cycles
 SCF Done:  E(RB3LYP) =  -1387.31721329     A.U. after   10 cycles
 SCF Done:  E(RB3LYP) =  -1387.31721411     A.U. after   10 cycles
 SCF Done:  E(RB3LYP) =  -1387.31721498     A.U. after   10 cycles
 SCF Done:  E(RB3LYP) =  -1387.31721583     A.U. after   10 cycles
 SCF Done:  E(RB3LYP) =  -1387.31721690     A.U. after   10 cycles
 SCF Done:  E(RB3LYP) =  -1387.31721729     A.U. after    8 cycles
 SCF Done:  E(RB3LYP) =  -1387.31721735     A.U. after    7 cycles
 Optimization completed.
    -- Stationary point found.

                         Standard orientation:
 ---------------------------------------------------------------------
 Center     Atomic      Atomic             Coordinates (Angstroms)
 Number     Number       Type             X           Y           Z
 ---------------------------------------------------------------------
      1          6           0       -1.309143    0.023438    3.263762
      2          6           0       -1.455646    1.249132    2.748154
      3          6           0       -1.717307    1.458601    1.271409
      4          6           0       -1.521001    0.208251    0.357172
      5          6           0       -0.976837   -1.103678    0.988309
      6          6           0       -1.400399   -1.250464    2.471070
      7          6           0       -0.648827    0.724602   -0.820974
      8          6           0        0.833601    0.598313   -0.558425
      9          6           0        1.409493   -0.370069    0.184083
     10          6           0        0.558197   -1.323364    0.905040
     11          6           0        2.907378   -0.438213    0.420804
     12          8           0        3.352168   -0.162560    1.518293
     13          6           0        3.782861   -0.840189   -0.764309
     14          6           0        5.284498   -0.825512   -0.419414
     15          6           0        3.300189   -2.175184   -1.372303
     16          8           0        1.036087   -2.309655    1.453782
     17          6           0       -0.756814    2.264551   -0.861633
     18          6           0        0.560411    2.684355   -1.560475
     19          8           0        1.505189    1.619027   -1.122530
     20          6           0       -0.874917    2.605342    0.637674
     21          8           0       -0.938908    0.052425   -2.032932
     22          6           0       -1.675770   -2.185857    0.122815
     23          6           0       -3.050875   -1.577252   -0.132353
     24          8           0       -2.806448   -0.143082   -0.216484
     25          6           0       -3.828799   -2.001687   -1.360873
     26          6           0       -5.139506   -1.278827   -1.560578
     27          6           0       -3.413674   -2.969024   -2.184567
     28          6           0        0.466746    2.627470   -3.086974
     29          6           0        1.169402    4.006313   -1.101716
     30          1           0       -1.635091    2.595535   -1.424611
     31          1           0       -2.777192    1.724607    1.149188
     32          6           0       -1.436555    2.483910    3.615224
     33          1           0       -1.154363   -0.082158    4.336710
     34          1           0       -2.432376   -1.629462    2.524154
     35          1           0       -0.772077   -2.029740    2.912944
     36          1           0        3.602109   -0.059760   -1.521228
     37          1           0        5.844023   -0.862075   -1.364386
     38          1           0        5.520794    0.137225    0.048422
     39          1           0        3.962278   -2.472742   -2.193430
     40          1           0        2.286478   -2.083663   -1.774224
     41          1           0        3.293467   -2.977651   -0.628505
     42          1           0       -1.322002    3.588108    0.812838
     43          1           0        0.119049    2.617983    1.098054
     44          1           0       -1.902417   -0.110886   -1.989896
     45          1           0       -1.719644   -3.148870    0.638106
     46          1           0       -1.135287   -2.317692   -0.818746
     47          1           0       -3.699753   -1.738639    0.743065
     48          1           0       -5.809004   -1.441286   -0.704599
     49          1           0       -4.984378   -0.196384   -1.634101
     50          1           0       -5.652240   -1.621641   -2.464002
     51          1           0       -2.482228   -3.506578   -2.038904
     52          1           0       -4.010924   -3.268905   -3.042065
     53          1           0        0.044844    1.676024   -3.415789
     54          1           0        1.462360    2.750414   -3.525929
     55          1           0       -0.170320    3.440785   -3.453359
     56          1           0        0.501821    4.834834   -1.363327
     57          1           0        2.128532    4.171581   -1.602934
     58          1           0        1.342848    4.025956   -0.023383
     59          1           0       -1.313966    2.222132    4.670594
     60          1           0       -0.621884    3.167355    3.343606
     61          1           0       -2.371594    3.053474    3.513896
     62          6           0        5.764484   -1.957558    0.497698
     63          1           0        5.618383   -2.943174    0.041289
     64          1           0        5.232481   -1.939101    1.452608
     65          1           0        6.835447   -1.849269    0.705193
 ---------------------------------------------------------------------

 The electronic state is 1-A.
 Alpha  occ. eigenvalues --  -19.19524 -19.16628 -19.15737 -19.12923 -19.12480
 Alpha  occ. eigenvalues --  -10.26937 -10.26863 -10.26738 -10.26648 -10.25709
 Alpha  occ. eigenvalues --  -10.25690 -10.25120 -10.21219 -10.20789 -10.20589
 Alpha  occ. eigenvalues --  -10.20265 -10.19822 -10.19458 -10.19215 -10.19090
 Alpha  occ. eigenvalues --  -10.19030 -10.18893 -10.18885 -10.18695 -10.18485
 Alpha  occ. eigenvalues --  -10.18360 -10.18260 -10.17974 -10.16942 -10.16834
 Alpha  occ. eigenvalues --  -10.15425  -1.08917  -1.05809  -1.03219  -1.02370
 Alpha  occ. eigenvalues --   -1.02212  -0.86578  -0.83621  -0.82371  -0.81338
 Alpha  occ. eigenvalues --   -0.80151  -0.79396  -0.76638  -0.74207  -0.73086
 Alpha  occ. eigenvalues --   -0.71852  -0.70969  -0.69960  -0.69470  -0.67760
 Alpha  occ. eigenvalues --   -0.64883  -0.64534  -0.63285  -0.61995  -0.60486
 Alpha  occ. eigenvalues --   -0.59253  -0.58533  -0.56803  -0.54877  -0.53295
 Alpha  occ. eigenvalues --   -0.52599  -0.52089  -0.50373  -0.50161  -0.49162
 Alpha  occ. eigenvalues --   -0.48071  -0.47488  -0.46576  -0.46182  -0.45625
 Alpha  occ. eigenvalues --   -0.45231  -0.44866  -0.44390  -0.43486  -0.43310
 Alpha  occ. eigenvalues --   -0.42716  -0.42429  -0.41908  -0.41509  -0.41293
 Alpha  occ. eigenvalues --   -0.40735  -0.40505  -0.40282  -0.40046  -0.39129
 Alpha  occ. eigenvalues --   -0.38935  -0.38470  -0.38312  -0.38144  -0.37669
 Alpha  occ. eigenvalues --   -0.37468  -0.37356  -0.37140  -0.37063  -0.36737
 Alpha  occ. eigenvalues --   -0.36516  -0.36215  -0.35110  -0.34807  -0.34275
 Alpha  occ. eigenvalues --   -0.33608  -0.33482  -0.32691  -0.32320  -0.31829
 Alpha  occ. eigenvalues --   -0.31416  -0.31180  -0.30951  -0.28047  -0.26651
 Alpha  occ. eigenvalues --   -0.26299  -0.24560  -0.24038  -0.23266  -0.22757
 Alpha virt. eigenvalues --   -0.04378  -0.00996   0.00344   0.02381   0.05199
 Alpha virt. eigenvalues --    0.07167   0.08721   0.08943   0.09233   0.10069
 Alpha virt. eigenvalues --    0.10656   0.10819   0.11162   0.11998   0.12501

 Mulliken atomic charges:
              1
     1  C   -0.184332
     2  C    0.194087
     3  C   -0.188606
     4  C    0.324187
     5  C   -0.055056
     6  C   -0.335542
     7  C    0.203277
     8  C    0.395865
     9  C   -0.096329
    10  C    0.433846
    11  C    0.428807
    12  O   -0.442063
    13  C   -0.173387
    14  C   -0.246704
    15  C   -0.461945
    16  O   -0.503856
    17  C   -0.164472
    18  C    0.305724
    19  O   -0.540236
    20  C   -0.322917
    21  O   -0.659225
    22  C   -0.324769
    23  C    0.096431
    24  O   -0.591717
    25  C    0.183027
    26  C   -0.508046
    27  C   -0.393780
    28  C   -0.467915
    29  C   -0.459173
    30  H    0.143147
    31  H    0.163170
    32  C   -0.519404
    33  H    0.123818
    34  H    0.145308
    35  H    0.186254
    36  H    0.157706
    37  H    0.121688
    38  H    0.144834
    39  H    0.145963
    40  H    0.153825
    41  H    0.172320
    42  H    0.150693
    43  H    0.169807
    44  H    0.413708
    45  H    0.168584
    46  H    0.168021
    47  H    0.138505
    48  H    0.156622
    49  H    0.170706
    50  H    0.154293
    51  H    0.152876
    52  H    0.142098
    53  H    0.192763
    54  H    0.154931
    55  H    0.143255
    56  H    0.150499
    57  H    0.162602
    58  H    0.164236
    59  H    0.158724
    60  H    0.158346
    61  H    0.148896
    62  C   -0.452689
    63  H    0.137681
    64  H    0.175540
    65  H    0.135496
 Sum of Mulliken atomic charges =   0.00000

 Dipole moment (field-independent basis, Debye):
    X=             -4.6922    Y=              3.0234    Z=             -2.5907  Tot=              6.1538
 Quadrupole moment (field-independent basis, Debye-Ang):
   XX=           -185.1185   YY=           -175.3682   ZZ=           -185.3167
   XY=              4.6080   XZ=             -8.4910   YZ=              2.2831

 Normal termination of Gaussian 09 at Wed Mar 24 13:34:08 2021.
