 Gaussian 09, Revision B.01,
 Gaussian 09:  EM64L-G09RevB.01 12-Aug-2010

 ---------------------------------------
 # opt rb3lyp/6-31g(d) geom=connectivity
 ---------------------------------------

 -------------------
 Title Card Required
 -------------------
 Symbolic Z-matrix:
 Charge =  0 Multiplicity = 1

 SCF Done:  E(RB3LYP) =  -1387.30604004     A.U. after   16 cycles
 SCF Done:  E(RB3LYP) =  -1387.31870062     A.U. after   13 cycles
 SCF Done:  E(RB3LYP) =  -1387.32110299     A.U. after   13 cycles
 SCF Done:  E(RB3LYP) =  -1387.32065167     A.U. after   13 cycles
 SCF Done:  E(RB3LYP) =  -1387.32219816     A.U. after   13 cycles
 SCF Done:  E(RB3LYP) =  -1387.32200899     A.U. after   13 cycles
 SCF Done:  E(RB3LYP) =  -1387.32250656     A.U. after   12 cycles
 SCF Done:  E(RB3LYP) =  -1387.32257652     A.U. after   12 cycles
 SCF Done:  E(RB3LYP) =  -1387.32260266     A.U. after   11 cycles
 SCF Done:  E(RB3LYP) =  -1387.32260603     A.U. after    8 cycles
 SCF Done:  E(RB3LYP) =  -1387.32260674     A.U. after    8 cycles
 SCF Done:  E(RB3LYP) =  -1387.32260708     A.U. after    7 cycles
 SCF Done:  E(RB3LYP) =  -1387.32260693     A.U. after    6 cycles
 Optimization completed.
    -- Stationary point found.

                         Standard orientation:
 ---------------------------------------------------------------------
 Center     Atomic      Atomic             Coordinates (Angstroms)
 Number     Number       Type             X           Y           Z
 ---------------------------------------------------------------------
      1          6           0       -1.469752    0.055115    3.235549
      2          6           0       -1.534280    1.295786    2.738223
      3          6           0       -1.717872    1.538610    1.254349
      4          6           0       -1.507574    0.297528    0.332569
      5          6           0       -1.032781   -1.034635    0.968087
      6          6           0       -1.574168   -1.196523    2.407958
      7          6           0       -0.558745    0.801359   -0.783659
      8          6           0        0.907782    0.644042   -0.432630
      9          6           0        1.422252   -0.381443    0.296478
     10          6           0        0.500614   -1.287165    0.987963
     11          6           0        2.911309   -0.521613    0.496075
     12          8           0        3.589410    0.454602    0.770162
     13          6           0        3.566819   -1.891180    0.283064
     14          6           0        4.615957   -1.777254   -0.845442
     15          6           0        4.211321   -2.363948    1.598022
     16          8           0        0.910178   -2.251288    1.631088
     17          6           0       -0.631900    2.342571   -0.818818
     18          6           0        0.730867    2.734760   -1.440425
     19          8           0        1.621143    1.641443   -0.957442
     20          6           0       -0.820804    2.673120    0.676628
     21          8           0       -0.769067    0.139767   -2.017335
     22          6           0       -1.687209   -2.079722    0.028130
     23          6           0       -3.035040   -1.426428   -0.315186
     24          8           0       -2.776699   -0.010490   -0.299704
     25          6           0       -3.659296   -1.861944   -1.624333
     26          6           0       -3.836156   -3.351692   -1.785527
     27          6           0       -4.071760   -0.983939   -2.544626
     28          6           0        0.726028    2.693884   -2.969889
     29          6           0        1.350984    4.033626   -0.933220
     30          1           0       -1.471675    2.697675   -1.424122
     31          1           0       -2.764639    1.830501    1.087410
     32          6           0       -1.503970    2.513455    3.628597
     33          1           0       -1.375112   -0.077690    4.312461
     34          1           0       -2.626709   -1.515749    2.372331
     35          1           0       -1.021781   -2.017896    2.873236
     36          1           0        2.797619   -2.612512   -0.010979
     37          1           0        5.363823   -1.033434   -0.545279
     38          1           0        5.137011   -2.741210   -0.920167
     39          1           0        4.730151   -3.317459    1.445182
     40          1           0        3.450426   -2.506649    2.370246
     41          1           0        4.939351   -1.625760    1.951068
     42          1           0        0.148769    2.661908    1.186319
     43          1           0       -1.256009    3.663498    0.837524
     44          1           0       -1.735591    0.010725   -2.080195
     45          1           0       -1.088689   -2.205770   -0.879494
     46          1           0       -1.790349   -3.052000    0.516960
     47          1           0       -3.760513   -1.644054    0.486010
     48          1           0       -4.408554   -3.774700   -0.948512
     49          1           0       -4.367800   -3.588470   -2.711341
     50          1           0       -2.871325   -3.874045   -1.802838
     51          1           0       -4.531391   -1.315795   -3.471689
     52          1           0       -3.988307    0.086996   -2.390579
     53          1           0        1.749452    2.790943   -3.346444
     54          1           0        0.137038    3.530497   -3.363271
     55          1           0        0.296959    1.758983   -3.334212
     56          1           0        1.469568    4.034523    0.152380
     57          1           0        2.339439    4.175657   -1.380949
     58          1           0        0.720290    4.883014   -1.218695
     59          1           0       -1.440720    2.228857    4.683317
     60          1           0       -0.650789    3.167024    3.406488
     61          1           0       -2.409445    3.122895    3.496358
     62          6           0        4.034154   -1.402417   -2.213475
     63          1           0        4.817117   -1.388090   -2.980474
     64          1           0        3.268653   -2.120545   -2.533258
     65          1           0        3.573346   -0.407845   -2.195711
 ---------------------------------------------------------------------

 The electronic state is 1-A.
 Alpha  occ. eigenvalues --  -19.19674 -19.16701 -19.15855 -19.12692 -19.12221
 Alpha  occ. eigenvalues --  -10.27423 -10.27190 -10.26658 -10.26087 -10.25816
 Alpha  occ. eigenvalues --  -10.25781 -10.25360 -10.21355 -10.20978 -10.20640
 Alpha  occ. eigenvalues --  -10.20352 -10.19877 -10.19850 -10.19454 -10.19399
 Alpha  occ. eigenvalues --  -10.19145 -10.18817 -10.18797 -10.18496 -10.18489
 Alpha  occ. eigenvalues --  -10.18143 -10.18134 -10.17449 -10.16860 -10.16154
 Alpha  occ. eigenvalues --  -10.15675  -1.09329  -1.06076  -1.02935  -1.02629
 Alpha  occ. eigenvalues --   -1.02056  -0.86773  -0.83630  -0.82485  -0.81388
 Alpha  occ. eigenvalues --   -0.80281  -0.78894  -0.76670  -0.74326  -0.73185
 Alpha  occ. eigenvalues --   -0.71741  -0.71221  -0.69926  -0.69659  -0.67992
 Alpha  occ. eigenvalues --   -0.65185  -0.63555  -0.63155  -0.61506  -0.60661
 Alpha  occ. eigenvalues --   -0.59484  -0.58771  -0.56943  -0.54550  -0.53886
 Alpha  occ. eigenvalues --   -0.52641  -0.52132  -0.50732  -0.50325  -0.49237
 Alpha  occ. eigenvalues --   -0.48133  -0.47695  -0.46816  -0.46232  -0.45856
 Alpha  occ. eigenvalues --   -0.44993  -0.44445  -0.43724  -0.43482  -0.43241
 Alpha  occ. eigenvalues --   -0.42499  -0.41992  -0.41896  -0.41471  -0.41302
 Alpha  occ. eigenvalues --   -0.40894  -0.40678  -0.40245  -0.40120  -0.39699
 Alpha  occ. eigenvalues --   -0.39115  -0.39058  -0.38764  -0.38155  -0.37785
 Alpha  occ. eigenvalues --   -0.37591  -0.37352  -0.37111  -0.36928  -0.36408
 Alpha  occ. eigenvalues --   -0.36240  -0.35032  -0.34939  -0.34531  -0.34398
 Alpha  occ. eigenvalues --   -0.33905  -0.33526  -0.32919  -0.32600  -0.31951
 Alpha  occ. eigenvalues --   -0.31368  -0.31120  -0.30389  -0.28340  -0.26534
 Alpha  occ. eigenvalues --   -0.26037  -0.24633  -0.24046  -0.23431  -0.22503
 Alpha virt. eigenvalues --   -0.04833  -0.01115   0.00860   0.02185   0.05943
 Alpha virt. eigenvalues --    0.07143   0.08276   0.08822   0.09460   0.09982
 Alpha virt. eigenvalues --    0.10885   0.11213   0.11266   0.12028   0.12684

 Mulliken atomic charges:
              1
     1  C   -0.188259
     2  C    0.192949
     3  C   -0.189181
     4  C    0.321947
     5  C   -0.051578
     6  C   -0.332578
     7  C    0.197838
     8  C    0.406951
     9  C   -0.092583
    10  C    0.421693
    11  C    0.420186
    12  O   -0.464586
    13  C   -0.128236
    14  C   -0.250343
    15  C   -0.459007
    16  O   -0.513458
    17  C   -0.165071
    18  C    0.301532
    19  O   -0.513020
    20  C   -0.325445
    21  O   -0.660618
    22  C   -0.324919
    23  C    0.106015
    24  O   -0.590315
    25  C    0.186784
    26  C   -0.519533
    27  C   -0.408227
    28  C   -0.469493
    29  C   -0.456971
    30  H    0.143382
    31  H    0.166642
    32  C   -0.519849
    33  H    0.122939
    34  H    0.145123
    35  H    0.183874
    36  H    0.134979
    37  H    0.151990
    38  H    0.127332
    39  H    0.135569
    40  H    0.169217
    41  H    0.155352
    42  H    0.172046
    43  H    0.151579
    44  H    0.416251
    45  H    0.172177
    46  H    0.165558
    47  H    0.145682
    48  H    0.159109
    49  H    0.162018
    50  H    0.169726
    51  H    0.139804
    52  H    0.153356
    53  H    0.159498
    54  H    0.143200
    55  H    0.192240
    56  H    0.167066
    57  H    0.167566
    58  H    0.148331
    59  H    0.158240
    60  H    0.159242
    61  H    0.150482
    62  C   -0.459789
    63  H    0.139974
    64  H    0.139072
    65  H    0.158549
 Sum of Mulliken atomic charges =   0.00000

 Dipole moment (field-independent basis, Debye):
    X=             -4.9298    Y=              1.6907    Z=             -1.5628  Tot=              5.4410
 Quadrupole moment (field-independent basis, Debye-Ang):
   XX=           -191.4386   YY=           -171.3375   ZZ=           -182.9523
   XY=              2.4134   XZ=             -3.9105   YZ=              1.5253

 Normal termination of Gaussian 09 at Wed Mar 24 14:13:01 2021.
