 Gaussian 09, Revision B.01,
 Gaussian 09:  EM64L-G09RevB.01 12-Aug-2010

 ---------------------------------------
 # opt rb3lyp/6-31g(d) geom=connectivity
 ---------------------------------------

 -------------------
 Title Card Required
 -------------------
 Symbolic Z-matrix:
 Charge =  0 Multiplicity = 1

 SCF Done:  E(RB3LYP) =  -1387.30108552     A.U. after   16 cycles
 SCF Done:  E(RB3LYP) =  -1387.31355653     A.U. after   13 cycles
 SCF Done:  E(RB3LYP) =  -1387.31592399     A.U. after   13 cycles
 SCF Done:  E(RB3LYP) =  -1387.31620855     A.U. after   13 cycles
 SCF Done:  E(RB3LYP) =  -1387.31644085     A.U. after   13 cycles
 SCF Done:  E(RB3LYP) =  -1387.31684132     A.U. after   12 cycles
 SCF Done:  E(RB3LYP) =  -1387.31695951     A.U. after   11 cycles
 SCF Done:  E(RB3LYP) =  -1387.31690954     A.U. after   12 cycles
 SCF Done:  E(RB3LYP) =  -1387.31703215     A.U. after   11 cycles
 SCF Done:  E(RB3LYP) =  -1387.31708474     A.U. after   11 cycles
 SCF Done:  E(RB3LYP) =  -1387.31495296     A.U. after   15 cycles
 SCF Done:  E(RB3LYP) =  -1387.31716914     A.U. after   15 cycles
 SCF Done:  E(RB3LYP) =  -1387.31724801     A.U. after   12 cycles
 SCF Done:  E(RB3LYP) =  -1387.31727720     A.U. after   11 cycles
 SCF Done:  E(RB3LYP) =  -1387.31729961     A.U. after   11 cycles
 SCF Done:  E(RB3LYP) =  -1387.31731263     A.U. after   10 cycles
 SCF Done:  E(RB3LYP) =  -1387.31731602     A.U. after   10 cycles
 SCF Done:  E(RB3LYP) =  -1387.31731672     A.U. after    8 cycles
 SCF Done:  E(RB3LYP) =  -1387.31731702     A.U. after    7 cycles
 SCF Done:  E(RB3LYP) =  -1387.31731704     A.U. after    6 cycles
 Optimization completed.
    -- Stationary point found.

                         Standard orientation:
 ---------------------------------------------------------------------
 Center     Atomic      Atomic             Coordinates (Angstroms)
 Number     Number       Type             X           Y           Z
 ---------------------------------------------------------------------
      1          6           0       -1.716045    0.627439    3.067542
      2          6           0       -1.663133    1.768923    2.373446
      3          6           0       -1.702896    1.780191    0.860166
      4          6           0       -1.553329    0.395413    0.149442
      5          6           0       -1.299864   -0.874789    1.018157
      6          6           0       -1.863293   -0.736681    2.458876
      7          6           0       -0.448600    0.629572   -0.919882
      8          6           0        0.947566    0.361753   -0.407189
      9          6           0        1.265287   -0.584550    0.502722
     10          6           0        0.176963   -1.345193    1.139466
     11          6           0        2.678607   -0.827015    0.989222
     12          8           0        2.938597   -0.709730    2.171458
     13          6           0        3.718466   -1.253874   -0.045840
     14          6           0        5.142805   -1.152572    0.523753
     15          6           0        3.360020   -2.673548   -0.540657
     16          8           0        0.404566   -2.357807    1.787669
     17          6           0       -0.337405    2.148695   -1.172634
     18          6           0        1.115351    2.307839   -1.682476
     19          8           0        1.826328    1.224722   -0.949055
     20          6           0       -0.633030    2.719072    0.226867
     21          8           0       -0.653320   -0.170215   -2.069980
     22          6           0       -2.110114   -1.954588    0.253580
     23          6           0       -3.327270   -1.162975   -0.230956
     24          8           0       -2.772380    0.124309   -0.599719
     25          6           0       -4.112664   -1.768942   -1.374131
     26          6           0       -3.495547   -1.792686   -2.750856
     27          6           0       -5.318754   -2.292010   -1.131529
     28          6           0        1.254061    2.029754   -3.181188
     29          6           0        1.820500    3.608194   -1.305789
     30          1           0       -1.066254    2.489706   -1.914450
     31          1           0       -2.691177    2.144851    0.546010
     32          6           0       -1.619491    3.112613    3.058973
     33          1           0       -1.707543    0.671748    4.155890
     34          1           0       -2.930707   -1.004938    2.459910
     35          1           0       -1.371362   -1.495523    3.074988
     36          1           0        3.620064   -0.568176   -0.899761
     37          1           0        5.258707   -0.170688    0.998098
     38          1           0        5.256868   -1.885399    1.331768
     39          1           0        4.046825   -2.992056   -1.331163
     40          1           0        2.344273   -2.709887   -0.947264
     41          1           0        3.420644   -3.396401    0.280670
     42          1           0       -0.966202    3.760329    0.195896
     43          1           0        0.274369    2.689682    0.839763
     44          1           0       -1.626063   -0.186721   -2.160316
     45          1           0       -2.377324   -2.797023    0.896200
     46          1           0       -1.537240   -2.337816   -0.596336
     47          1           0       -4.020107   -1.005643    0.606404
     48          1           0       -3.433927   -0.779390   -3.169968
     49          1           0       -2.480479   -2.207574   -2.745995
     50          1           0       -4.099546   -2.391671   -3.438433
     51          1           0       -5.775109   -2.248565   -0.145591
     52          1           0       -5.891967   -2.791081   -1.908382
     53          1           0        0.764191    1.092662   -3.451658
     54          1           0        2.313312    1.973683   -3.453001
     55          1           0        0.797299    2.843672   -3.756056
     56          1           0        1.321645    4.455786   -1.788633
     57          1           0        2.859261    3.584098   -1.650332
     58          1           0        1.824771    3.776104   -0.226410
     59          1           0       -1.661764    3.000699    4.146658
     60          1           0       -0.708088    3.674106    2.816375
     61          1           0       -2.466953    3.741872    2.750853
     62          6           0        6.246082   -1.344751   -0.522608
     63          1           0        6.151950   -0.617849   -1.339623
     64          1           0        6.226119   -2.346502   -0.966440
     65          1           0        7.235549   -1.208021   -0.071511
 ---------------------------------------------------------------------

 The electronic state is 1-A.
 Alpha  occ. eigenvalues --  -19.19737 -19.16719 -19.15863 -19.12662 -19.12415
 Alpha  occ. eigenvalues --  -10.27037 -10.26918 -10.26883 -10.26403 -10.25869
 Alpha  occ. eigenvalues --  -10.25820 -10.24967 -10.21276 -10.20731 -10.20677
 Alpha  occ. eigenvalues --  -10.20306 -10.19894 -10.19409 -10.19351 -10.19246
 Alpha  occ. eigenvalues --  -10.19243 -10.19119 -10.18797 -10.18704 -10.18426
 Alpha  occ. eigenvalues --  -10.18414 -10.18312 -10.18033 -10.17056 -10.16795
 Alpha  occ. eigenvalues --  -10.16619  -1.09121  -1.05928  -1.03139  -1.02565
 Alpha  occ. eigenvalues --   -1.02078  -0.86598  -0.83695  -0.82436  -0.81353
 Alpha  occ. eigenvalues --   -0.80171  -0.79517  -0.76750  -0.74193  -0.73154
 Alpha  occ. eigenvalues --   -0.72109  -0.71254  -0.70118  -0.69996  -0.67758
 Alpha  occ. eigenvalues --   -0.64929  -0.64605  -0.63051  -0.62054  -0.60539
 Alpha  occ. eigenvalues --   -0.59210  -0.58457  -0.56854  -0.54977  -0.53670
 Alpha  occ. eigenvalues --   -0.52917  -0.52054  -0.50497  -0.50404  -0.49424
 Alpha  occ. eigenvalues --   -0.47866  -0.47370  -0.46747  -0.46404  -0.45579
 Alpha  occ. eigenvalues --   -0.44993  -0.44794  -0.44364  -0.43878  -0.43623
 Alpha  occ. eigenvalues --   -0.42945  -0.42683  -0.41999  -0.41391  -0.41337
 Alpha  occ. eigenvalues --   -0.40812  -0.40659  -0.40427  -0.40064  -0.39584
 Alpha  occ. eigenvalues --   -0.39195  -0.38846  -0.38494  -0.38253  -0.37924
 Alpha  occ. eigenvalues --   -0.37699  -0.37549  -0.37327  -0.36764  -0.36680
 Alpha  occ. eigenvalues --   -0.36412  -0.36042  -0.35134  -0.34491  -0.34357
 Alpha  occ. eigenvalues --   -0.33838  -0.33609  -0.33351  -0.32798  -0.32039
 Alpha  occ. eigenvalues --   -0.31530  -0.31350  -0.31069  -0.28330  -0.27108
 Alpha  occ. eigenvalues --   -0.25645  -0.24541  -0.24108  -0.23267  -0.22684
 Alpha virt. eigenvalues --   -0.04485  -0.01189   0.00627   0.02344   0.05368
 Alpha virt. eigenvalues --    0.07207   0.08357   0.08641   0.09258   0.10045
 Alpha virt. eigenvalues --    0.10201   0.10443   0.11143   0.12210   0.12430

 Mulliken atomic charges:
              1
     1  C   -0.183698
     2  C    0.193976
     3  C   -0.190001
     4  C    0.326737
     5  C   -0.049386
     6  C   -0.338730
     7  C    0.190571
     8  C    0.393071
     9  C   -0.093035
    10  C    0.427124
    11  C    0.422326
    12  O   -0.442276
    13  C   -0.170663
    14  C   -0.241653
    15  C   -0.457930
    16  O   -0.495635
    17  C   -0.162843
    18  C    0.305302
    19  O   -0.539922
    20  C   -0.321701
    21  O   -0.673164
    22  C   -0.310450
    23  C    0.076069
    24  O   -0.597091
    25  C    0.240385
    26  C   -0.546969
    27  C   -0.403946
    28  C   -0.468185
    29  C   -0.459882
    30  H    0.143915
    31  H    0.163976
    32  C   -0.519228
    33  H    0.123888
    34  H    0.146140
    35  H    0.187992
    36  H    0.150973
    37  H    0.142052
    38  H    0.147510
    39  H    0.150859
    40  H    0.156217
    41  H    0.163612
    42  H    0.151487
    43  H    0.167615
    44  H    0.433713
    45  H    0.169879
    46  H    0.162650
    47  H    0.136340
    48  H    0.166290
    49  H    0.174200
    50  H    0.161576
    51  H    0.142135
    52  H    0.141802
    53  H    0.192229
    54  H    0.155197
    55  H    0.144061
    56  H    0.151468
    57  H    0.162675
    58  H    0.163485
    59  H    0.158796
    60  H    0.156956
    61  H    0.149671
    62  C   -0.452471
    63  H    0.136838
    64  H    0.143501
    65  H    0.143597
 Sum of Mulliken atomic charges =   0.00000

 Dipole moment (field-independent basis, Debye):
    X=             -3.3646    Y=              3.5655    Z=             -3.6534  Tot=              6.1140
 Quadrupole moment (field-independent basis, Debye-Ang):
   XX=           -181.9504   YY=           -177.5683   ZZ=           -187.5370
   XY=              6.5098   XZ=             -8.8317   YZ=              3.9837

 Normal termination of Gaussian 09 at Wed Mar 24 15:26:07 2021.
