 Gaussian 09, Revision B.01,
 Gaussian 09:  EM64L-G09RevB.01 12-Aug-2010

 ---------------------------------------
 # opt rb3lyp/6-31g(d) geom=connectivity
 ---------------------------------------

 -------------------
 Title Card Required
 -------------------
 Symbolic Z-matrix:
 Charge =  0 Multiplicity = 1

 SCF Done:  E(RB3LYP) =  -1387.30020524     A.U. after   16 cycles
 SCF Done:  E(RB3LYP) =  -1387.31289349     A.U. after   13 cycles
 SCF Done:  E(RB3LYP) =  -1387.31515387     A.U. after   13 cycles
 SCF Done:  E(RB3LYP) =  -1387.31484190     A.U. after   13 cycles
 SCF Done:  E(RB3LYP) =  -1387.31494524     A.U. after   13 cycles
 SCF Done:  E(RB3LYP) =  -1387.31520784     A.U. after   13 cycles
 SCF Done:  E(RB3LYP) =  -1387.31601026     A.U. after   13 cycles
 SCF Done:  E(RB3LYP) =  -1387.31606954     A.U. after   11 cycles
 SCF Done:  E(RB3LYP) =  -1387.31610365     A.U. after   11 cycles
 SCF Done:  E(RB3LYP) =  -1387.31611226     A.U. after   10 cycles
 SCF Done:  E(RB3LYP) =  -1387.31611510     A.U. after   10 cycles
 SCF Done:  E(RB3LYP) =  -1387.31611632     A.U. after   10 cycles
 SCF Done:  E(RB3LYP) =  -1387.31611684     A.U. after    8 cycles
 SCF Done:  E(RB3LYP) =  -1387.31611701     A.U. after    7 cycles
 SCF Done:  E(RB3LYP) =  -1387.31611707     A.U. after    7 cycles
 SCF Done:  E(RB3LYP) =  -1387.31611707     A.U. after    7 cycles
 Optimization completed.
    -- Stationary point found.

                         Standard orientation:
 ---------------------------------------------------------------------
 Center     Atomic      Atomic             Coordinates (Angstroms)
 Number     Number       Type             X           Y           Z
 ---------------------------------------------------------------------
      1          6           0       -0.145675   -1.810438    2.615375
      2          6           0       -0.176666   -0.508237    2.923596
      3          6           0       -0.869127    0.496144    2.025453
      4          6           0       -1.249911   -0.013931    0.600579
      5          6           0       -0.818277   -1.441622    0.178102
      6          6           0       -0.783364   -2.404773    1.389995
      7          6           0       -0.718862    1.082767   -0.360386
      8          6           0        0.710307    0.847363   -0.806953
      9          6           0        1.285104   -0.372904   -0.983384
     10          6           0        0.535618   -1.562759   -0.575462
     11          6           0        2.660746   -0.467764   -1.615468
     12          8           0        2.868968    0.154551   -2.643157
     13          6           0        3.807387   -1.279980   -0.988772
     14          6           0        3.754218   -1.437955    0.541014
     15          6           0        3.967271   -2.628721   -1.723545
     16          8           0        0.948314   -2.696577   -0.810348
     17          6           0       -0.517090    2.377784    0.454736
     18          6           0        0.560299    3.129212   -0.363058
     19          8           0        1.355593    2.009337   -0.939587
     20          6           0       -0.072587    1.818716    1.821629
     21          8           0       -1.515392    1.203416   -1.522998
     22          6           0       -1.958952   -1.842430   -0.795013
     23          6           0       -3.190726   -1.215125   -0.148460
     24          8           0       -2.695126    0.003015    0.482648
     25          6           0       -4.376406   -0.852887   -1.019342
     26          6           0       -5.508852   -0.168114   -0.291692
     27          6           0       -4.439031   -1.147453   -2.321633
     28          6           0       -0.023221    3.933528   -1.526839
     29          6           0        1.544938    3.975837    0.439171
     30          1           0       -1.443025    2.955809    0.533010
     31          1           0       -1.829943    0.758571    2.490951
     32          6           0        0.402041    0.018233    4.213857
     33          1           0        0.327181   -2.505788    3.307841
     34          1           0       -0.255441   -3.308905    1.073844
     35          1           0       -1.807507   -2.720834    1.638861
     36          1           0        4.692118   -0.677562   -1.238229
     37          1           0        2.811277   -1.906955    0.841166
     38          1           0        4.544955   -2.141779    0.833949
     39          1           0        4.039287   -2.465235   -2.803829
     40          1           0        4.887508   -3.123506   -1.391099
     41          1           0        3.117983   -3.285188   -1.525576
     42          1           0        0.999003    1.593075    1.802255
     43          1           0       -0.234824    2.526856    2.639315
     44          1           0       -2.427356    1.042829   -1.208968
     45          1           0       -2.035982   -2.927524   -0.902705
     46          1           0       -1.777267   -1.404421   -1.780012
     47          1           0       -3.559834   -1.863326    0.661650
     48          1           0       -5.900461   -0.807613    0.511424
     49          1           0       -5.166599    0.757434    0.185312
     50          1           0       -6.333424    0.071495   -0.969396
     51          1           0       -3.637717   -1.653342   -2.850319
     52          1           0       -5.317638   -0.895676   -2.910280
     53          1           0        0.784665    4.279349   -2.179442
     54          1           0       -0.555018    4.811783   -1.142783
     55          1           0       -0.718244    3.328553   -2.111586
     56          1           0        2.304713    4.396348   -0.226934
     57          1           0        1.015335    4.805694    0.920058
     58          1           0        2.054740    3.395399    1.211765
     59          1           0        0.818581   -0.792846    4.819070
     60          1           0        1.199885    0.751771    4.041544
     61          1           0       -0.366873    0.526311    4.813460
     62          6           0        3.958587   -0.120620    1.299570
     63          1           0        3.210423    0.629477    1.016816
     64          1           0        3.888772   -0.271577    2.383138
     65          1           0        4.945250    0.308168    1.084824
 ---------------------------------------------------------------------

 The electronic state is 1-A.
 Alpha  occ. eigenvalues --  -19.19694 -19.16710 -19.15767 -19.12708 -19.12150
 Alpha  occ. eigenvalues --  -10.27385 -10.27205 -10.26690 -10.26291 -10.25817
 Alpha  occ. eigenvalues --  -10.25795 -10.25202 -10.21381 -10.20793 -10.20644
 Alpha  occ. eigenvalues --  -10.20539 -10.20066 -10.19703 -10.19526 -10.19195
 Alpha  occ. eigenvalues --  -10.19086 -10.18949 -10.18911 -10.18886 -10.18798
 Alpha  occ. eigenvalues --  -10.18421 -10.17993 -10.17953 -10.17213 -10.16977
 Alpha  occ. eigenvalues --  -10.15736  -1.09295  -1.05916  -1.02969  -1.02450
 Alpha  occ. eigenvalues --   -1.02062  -0.86796  -0.83659  -0.82401  -0.81433
 Alpha  occ. eigenvalues --   -0.80324  -0.79282  -0.76620  -0.74357  -0.73250
 Alpha  occ. eigenvalues --   -0.71833  -0.71630  -0.69955  -0.69503  -0.67964
 Alpha  occ. eigenvalues --   -0.65113  -0.63599  -0.63290  -0.61607  -0.60688
 Alpha  occ. eigenvalues --   -0.59503  -0.59181  -0.57062  -0.55269  -0.53671
 Alpha  occ. eigenvalues --   -0.53050  -0.52254  -0.50799  -0.50437  -0.49235
 Alpha  occ. eigenvalues --   -0.48175  -0.46951  -0.46522  -0.46318  -0.45756
 Alpha  occ. eigenvalues --   -0.45265  -0.44656  -0.44194  -0.43410  -0.43029
 Alpha  occ. eigenvalues --   -0.42810  -0.42061  -0.41852  -0.41605  -0.41513
 Alpha  occ. eigenvalues --   -0.40926  -0.40620  -0.40292  -0.40099  -0.39865
 Alpha  occ. eigenvalues --   -0.39404  -0.39059  -0.38437  -0.38155  -0.38142
 Alpha  occ. eigenvalues --   -0.37703  -0.37484  -0.37409  -0.36987  -0.36772
 Alpha  occ. eigenvalues --   -0.36500  -0.35240  -0.35098  -0.34896  -0.34085
 Alpha  occ. eigenvalues --   -0.33709  -0.33577  -0.33305  -0.32766  -0.32166
 Alpha  occ. eigenvalues --   -0.31214  -0.31164  -0.30840  -0.28086  -0.26691
 Alpha  occ. eigenvalues --   -0.26277  -0.24762  -0.24247  -0.23535  -0.22393
 Alpha virt. eigenvalues --   -0.04899  -0.01381   0.00302   0.01812   0.05814
 Alpha virt. eigenvalues --    0.06583   0.07649   0.08861   0.09047   0.10095
 Alpha virt. eigenvalues --    0.10588   0.10855   0.11510   0.11681   0.12479

 Mulliken atomic charges:
              1
     1  C   -0.190410
     2  C    0.191769
     3  C   -0.187577
     4  C    0.323626
     5  C   -0.057082
     6  C   -0.334307
     7  C    0.198263
     8  C    0.408858
     9  C   -0.091311
    10  C    0.433534
    11  C    0.410045
    12  O   -0.444543
    13  C   -0.134226
    14  C   -0.271789
    15  C   -0.468590
    16  O   -0.522036
    17  C   -0.161696
    18  C    0.299721
    19  O   -0.513841
    20  C   -0.328570
    21  O   -0.653330
    22  C   -0.326067
    23  C    0.095457
    24  O   -0.591749
    25  C    0.180357
    26  C   -0.507885
    27  C   -0.392214
    28  C   -0.467172
    29  C   -0.460653
    30  H    0.144650
    31  H    0.165624
    32  C   -0.520634
    33  H    0.122833
    34  H    0.183516
    35  H    0.147255
    36  H    0.145775
    37  H    0.151953
    38  H    0.131788
    39  H    0.155008
    40  H    0.134416
    41  H    0.188103
    42  H    0.168145
    43  H    0.151597
    44  H    0.414332
    45  H    0.168103
    46  H    0.174814
    47  H    0.138102
    48  H    0.156059
    49  H    0.170535
    50  H    0.154888
    51  H    0.155193
    52  H    0.142980
    53  H    0.163193
    54  H    0.141214
    55  H    0.195363
    56  H    0.168125
    57  H    0.150809
    58  H    0.159815
    59  H    0.157876
    60  H    0.158315
    61  H    0.151701
    62  C   -0.459749
    63  H    0.148386
    64  H    0.139308
    65  H    0.144029
 Sum of Mulliken atomic charges =   0.00000

 Dipole moment (field-independent basis, Debye):
    X=             -3.7687    Y=              2.3153    Z=              4.6540  Tot=              6.4205
 Quadrupole moment (field-independent basis, Debye-Ang):
   XX=           -179.6103   YY=           -178.0139   ZZ=           -191.0416
   XY=              2.4738   XZ=             10.7093   YZ=              2.0454

 Normal termination of Gaussian 09 at Wed Mar 24 17:35:18 2021.
