 Gaussian 09, Revision B.01,
 Gaussian 09:  EM64L-G09RevB.01 12-Aug-2010

 ---------------------------------------
 # opt rb3lyp/6-31g(d) geom=connectivity
 ---------------------------------------

 -------------------
 Title Card Required
 -------------------
 Symbolic Z-matrix:
 Charge =  0 Multiplicity = 1

 SCF Done:  E(RB3LYP) =  -1387.30094226     A.U. after   16 cycles
 SCF Done:  E(RB3LYP) =  -1387.31368757     A.U. after   13 cycles
 SCF Done:  E(RB3LYP) =  -1387.31551377     A.U. after   13 cycles
 SCF Done:  E(RB3LYP) =  -1387.31416848     A.U. after   13 cycles
 SCF Done:  E(RB3LYP) =  -1387.31602941     A.U. after   13 cycles
 SCF Done:  E(RB3LYP) =  -1387.31625050     A.U. after   12 cycles
 SCF Done:  E(RB3LYP) =  -1387.31616394     A.U. after   13 cycles
 SCF Done:  E(RB3LYP) =  -1387.31657740     A.U. after   13 cycles
 SCF Done:  E(RB3LYP) =  -1387.31661540     A.U. after   11 cycles
 SCF Done:  E(RB3LYP) =  -1387.31662330     A.U. after   10 cycles
 SCF Done:  E(RB3LYP) =  -1387.31716584     A.U. after   13 cycles
 SCF Done:  E(RB3LYP) =  -1387.31394648     A.U. after   15 cycles
 SCF Done:  E(RB3LYP) =  -1387.31730047     A.U. after   15 cycles
 SCF Done:  E(RB3LYP) =  -1387.31737884     A.U. after   12 cycles
 SCF Done:  E(RB3LYP) =  -1387.31742701     A.U. after   12 cycles
 SCF Done:  E(RB3LYP) =  -1387.31743959     A.U. after   10 cycles
 SCF Done:  E(RB3LYP) =  -1387.31744064     A.U. after    9 cycles
 SCF Done:  E(RB3LYP) =  -1387.31744117     A.U. after    7 cycles
 SCF Done:  E(RB3LYP) =  -1387.31744147     A.U. after    6 cycles
 SCF Done:  E(RB3LYP) =  -1387.31744156     A.U. after    6 cycles
 Optimization completed.
    -- Stationary point found.

                         Standard orientation:
 ---------------------------------------------------------------------
 Center     Atomic      Atomic             Coordinates (Angstroms)
 Number     Number       Type             X           Y           Z
 ---------------------------------------------------------------------
      1          6           0       -1.190853   -0.392285    3.256347
      2          6           0       -1.422900    0.873737    2.891940
      3          6           0       -1.704299    1.241477    1.450599
      4          6           0       -1.435221    0.124269    0.394309
      5          6           0       -0.781348   -1.203704    0.865606
      6          6           0       -1.194724   -1.562838    2.313525
      7          6           0       -0.629681    0.838742   -0.726034
      8          6           0        0.864073    0.781372   -0.507948
      9          6           0        1.527358   -0.227387    0.096099
     10          6           0        0.766954   -1.282005    0.768980
     11          6           0        3.036619   -0.175787    0.306063
     12          8           0        3.471223    0.352063    1.311715
     13          6           0        3.959793   -0.792983   -0.742901
     14          6           0        4.056693   -2.329769   -0.558765
     15          6           0        3.549265   -0.434102   -2.180670
     16          8           0        1.332069   -2.246013    1.279150
     17          6           0       -0.836328    2.361837   -0.572055
     18          6           0        0.431730    2.950733   -1.238336
     19          8           0        1.451960    1.901182   -0.962443
     20          6           0       -0.936818    2.503645    0.959472
     21          8           0       -0.904406    0.305090   -2.008366
     22          6           0       -1.389472   -2.222995   -0.134668
     23          6           0       -2.816079   -1.711002   -0.310065
     24          8           0       -2.703457   -0.261663   -0.195745
     25          6           0       -3.563579   -2.034860   -1.587410
     26          6           0       -4.939070   -1.419427   -1.687516
     27          6           0       -3.068740   -2.834641   -2.537202
     28          6           0        0.297000    3.085538   -2.756759
     29          6           0        0.974186    4.238640   -0.624165
     30          1           0       -1.749050    2.700159   -1.072523
     31          1           0       -2.779327    1.453553    1.357698
     32          6           0       -1.482298    1.993754    3.901218
     33          1           0       -1.024366   -0.615868    4.309237
     34          1           0       -2.197940   -2.014586    2.309981
     35          1           0       -0.512340   -2.343792    2.661534
     36          1           0        4.947709   -0.364862   -0.529560
     37          1           0        3.059360   -2.772519   -0.667245
     38          1           0        4.662853   -2.714082   -1.390867
     39          1           0        4.293310   -0.821588   -2.885835
     40          1           0        3.475890    0.648688   -2.323910
     41          1           0        2.579834   -0.873593   -2.440773
     42          1           0       -1.429747    3.430427    1.266705
     43          1           0        0.065442    2.508387    1.401880
     44          1           0       -1.853155    0.070818   -1.973367
     45          1           0       -1.344392   -3.245228    0.250312
     46          1           0       -0.849735   -2.181146   -1.084637
     47          1           0       -3.440000   -2.047740    0.532629
     48          1           0       -5.579362   -1.758401   -0.861457
     49          1           0       -4.887363   -0.327095   -1.613832
     50          1           0       -5.428891   -1.684253   -2.629093
     51          1           0       -2.088739   -3.295610   -2.467480
     52          1           0       -3.645674   -3.067901   -3.428638
     53          1           0       -0.072919    2.159180   -3.199840
     54          1           0        1.269509    3.330573   -3.196277
     55          1           0       -0.400400    3.895657   -2.999439
     56          1           0        0.250963    5.050457   -0.760539
     57          1           0        1.906200    4.525869   -1.121087
     58          1           0        1.179194    4.129395    0.443214
     59          1           0       -1.338421    1.615731    4.917955
     60          1           0       -0.715507    2.757198    3.716995
     61          1           0       -2.453335    2.508427    3.865654
     62          6           0        4.668768   -2.769722    0.773625
     63          1           0        4.043102   -2.461599    1.615417
     64          1           0        5.668268   -2.340196    0.913855
     65          1           0        4.763731   -3.861155    0.809098
 ---------------------------------------------------------------------

 The electronic state is 1-A.
 Alpha  occ. eigenvalues --  -19.19468 -19.16642 -19.15744 -19.12876 -19.12681
 Alpha  occ. eigenvalues --  -10.27145 -10.26858 -10.26660 -10.26654 -10.25719
 Alpha  occ. eigenvalues --  -10.25682 -10.25175 -10.21307 -10.20833 -10.20544
 Alpha  occ. eigenvalues --  -10.20247 -10.19751 -10.19587 -10.19196 -10.19080
 Alpha  occ. eigenvalues --  -10.18941 -10.18940 -10.18929 -10.18641 -10.18324
 Alpha  occ. eigenvalues --  -10.18227 -10.18193 -10.17957 -10.17188 -10.16871
 Alpha  occ. eigenvalues --  -10.15261  -1.08924  -1.05793  -1.03174  -1.02374
 Alpha  occ. eigenvalues --   -1.02327  -0.86597  -0.83593  -0.82386  -0.81340
 Alpha  occ. eigenvalues --   -0.80174  -0.79464  -0.76532  -0.74221  -0.73069
 Alpha  occ. eigenvalues --   -0.71761  -0.71170  -0.69914  -0.69508  -0.67753
 Alpha  occ. eigenvalues --   -0.64943  -0.63763  -0.63267  -0.61546  -0.60470
 Alpha  occ. eigenvalues --   -0.59257  -0.58801  -0.56913  -0.55416  -0.53648
 Alpha  occ. eigenvalues --   -0.52946  -0.52152  -0.50639  -0.50331  -0.49167
 Alpha  occ. eigenvalues --   -0.48023  -0.46959  -0.46541  -0.45950  -0.45489
 Alpha  occ. eigenvalues --   -0.45096  -0.44567  -0.43917  -0.43512  -0.43257
 Alpha  occ. eigenvalues --   -0.42763  -0.41990  -0.41802  -0.41597  -0.41303
 Alpha  occ. eigenvalues --   -0.40718  -0.40571  -0.40362  -0.39988  -0.39799
 Alpha  occ. eigenvalues --   -0.39120  -0.38868  -0.38265  -0.38111  -0.37947
 Alpha  occ. eigenvalues --   -0.37479  -0.37360  -0.37146  -0.36833  -0.36705
 Alpha  occ. eigenvalues --   -0.36321  -0.35397  -0.35016  -0.34723  -0.34293
 Alpha  occ. eigenvalues --   -0.33534  -0.33487  -0.33020  -0.32456  -0.31997
 Alpha  occ. eigenvalues --   -0.31754  -0.31060  -0.30682  -0.28058  -0.26703
 Alpha  occ. eigenvalues --   -0.26286  -0.24707  -0.24049  -0.23346  -0.22575
 Alpha virt. eigenvalues --   -0.04404  -0.00864   0.00286   0.02395   0.04552
 Alpha virt. eigenvalues --    0.07290   0.08678   0.08907   0.09201   0.10350
 Alpha virt. eigenvalues --    0.10803   0.11134   0.11192   0.12194   0.12357

 Mulliken atomic charges:
              1
     1  C   -0.184882
     2  C    0.195102
     3  C   -0.188524
     4  C    0.324480
     5  C   -0.055917
     6  C   -0.334556
     7  C    0.201138
     8  C    0.413185
     9  C   -0.105831
    10  C    0.436256
    11  C    0.421810
    12  O   -0.439537
    13  C   -0.151919
    14  C   -0.255638
    15  C   -0.468825
    16  O   -0.513289
    17  C   -0.164507
    18  C    0.304832
    19  O   -0.535865
    20  C   -0.323711
    21  O   -0.659491
    22  C   -0.325415
    23  C    0.097202
    24  O   -0.591872
    25  C    0.181374
    26  C   -0.508102
    27  C   -0.392578
    28  C   -0.467991
    29  C   -0.458593
    30  H    0.142641
    31  H    0.163053
    32  C   -0.519946
    33  H    0.123211
    34  H    0.145175
    35  H    0.186102
    36  H    0.145475
    37  H    0.150104
    38  H    0.129097
    39  H    0.144445
    40  H    0.158507
    41  H    0.153479
    42  H    0.150676
    43  H    0.173366
    44  H    0.413912
    45  H    0.167587
    46  H    0.168623
    47  H    0.139097
    48  H    0.156786
    49  H    0.170914
    50  H    0.154451
    51  H    0.152316
    52  H    0.142364
    53  H    0.192405
    54  H    0.155678
    55  H    0.143031
    56  H    0.149487
    57  H    0.163236
    58  H    0.166529
    59  H    0.158383
    60  H    0.159576
    61  H    0.148764
    62  C   -0.447643
    63  H    0.179714
    64  H    0.135901
    65  H    0.135170
 Sum of Mulliken atomic charges =   0.00000

 Dipole moment (field-independent basis, Debye):
    X=             -4.9708    Y=              2.2145    Z=             -2.1279  Tot=              5.8430
 Quadrupole moment (field-independent basis, Debye-Ang):
   XX=           -187.0223   YY=           -174.1440   ZZ=           -184.6981
   XY=              1.9758   XZ=             -7.9940   YZ=              2.0884

 Normal termination of Gaussian 09 at Wed Mar 24 15:20:19 2021.
