 Gaussian 09, Revision B.01,
 Gaussian 09:  EM64L-G09RevB.01 12-Aug-2010

 ---------------------------------------
 # opt rb3lyp/6-31g(d) geom=connectivity
 ---------------------------------------

 -------------------
 Title Card Required
 -------------------
 Symbolic Z-matrix:
 Charge =  0 Multiplicity = 1

 SCF Done:  E(RB3LYP) =  -1387.30236083     A.U. after   16 cycles
 SCF Done:  E(RB3LYP) =  -1387.31522694     A.U. after   13 cycles
 SCF Done:  E(RB3LYP) =  -1387.31718477     A.U. after   13 cycles
 SCF Done:  E(RB3LYP) =  -1387.31662624     A.U. after   13 cycles
 SCF Done:  E(RB3LYP) =  -1387.31820302     A.U. after   13 cycles
 SCF Done:  E(RB3LYP) =  -1387.31826800     A.U. after   12 cycles
 SCF Done:  E(RB3LYP) =  -1387.31828847     A.U. after   11 cycles
 SCF Done:  E(RB3LYP) =  -1387.31833801     A.U. after   12 cycles
 SCF Done:  E(RB3LYP) =  -1387.31835560     A.U. after   10 cycles
 SCF Done:  E(RB3LYP) =  -1387.31836005     A.U. after   10 cycles
 SCF Done:  E(RB3LYP) =  -1387.31836401     A.U. after   11 cycles
 SCF Done:  E(RB3LYP) =  -1387.31836633     A.U. after   10 cycles
 SCF Done:  E(RB3LYP) =  -1387.31836773     A.U. after   10 cycles
 SCF Done:  E(RB3LYP) =  -1387.31836816     A.U. after    7 cycles
 SCF Done:  E(RB3LYP) =  -1387.31836843     A.U. after    7 cycles
 SCF Done:  E(RB3LYP) =  -1387.31836862     A.U. after    7 cycles
 Optimization completed.
    -- Stationary point found.

                         Standard orientation:
 ---------------------------------------------------------------------
 Center     Atomic      Atomic             Coordinates (Angstroms)
 Number     Number       Type             X           Y           Z
 ---------------------------------------------------------------------
      1          6           0       -1.502637    0.373230    3.159047
      2          6           0       -1.352620    1.575023    2.592913
      3          6           0       -1.445043    1.764081    1.094119
      4          6           0       -1.477763    0.462683    0.228616
      5          6           0       -1.326852   -0.918489    0.937083
      6          6           0       -1.814086   -0.890995    2.412314
      7          6           0       -0.400302    0.704304   -0.868443
      8          6           0        0.977533    0.230071   -0.467762
      9          6           0        1.227814   -0.843476    0.313355
     10          6           0        0.092969   -1.550737    0.927917
     11          6           0        2.628741   -1.281075    0.678801
     12          8           0        2.965174   -1.335138    1.846792
     13          6           0        3.550693   -1.711942   -0.462005
     14          6           0        5.035399   -1.580246   -0.091139
     15          6           0        3.178683   -3.167681   -0.827136
     16          8           0        0.235944   -2.647135    1.452509
     17          6           0       -0.129051    2.221689   -0.952217
     18          6           0        1.310371    2.285788   -1.517990
     19          8           0        1.924425    1.051025   -0.955593
     20          6           0       -0.301135    2.650162    0.517132
     21          8           0       -0.743467    0.075704   -2.089335
     22          6           0       -2.279808   -1.814108    0.102277
     23          6           0       -3.424204   -0.851333   -0.223148
     24          8           0       -2.750331    0.406116   -0.477146
     25          6           0       -4.319311   -1.238114   -1.380640
     26          6           0       -3.769020   -1.164713   -2.783730
     27          6           0       -5.562772   -1.660478   -1.130716
     28          6           0        1.355938    2.177926   -3.044102
     29          6           0        2.171447    3.447878   -1.030764
     30          1           0       -0.844725    2.725019   -1.609788
     31          1           0       -2.396352    2.267658    0.870262
     32          6           0       -1.140433    2.819931    3.419474
     33          1           0       -1.451282    0.292024    4.244124
     34          1           0       -1.378746   -1.759893    2.915293
     35          1           0       -2.902667   -1.051656    2.439979
     36          1           0        3.331352   -1.077978   -1.330977
     37          1           0        5.216533   -2.145423    0.830415
     38          1           0        5.630007   -2.059036   -0.880915
     39          1           0        2.115923   -3.266632   -1.071796
     40          1           0        3.761393   -3.498110   -1.694232
     41          1           0        3.393083   -3.840078    0.010617
     42          1           0        0.620580    2.450586    1.074738
     43          1           0       -0.514842    3.717598    0.622865
     44          1           0       -1.714712    0.175865   -2.126991
     45          1           0       -2.608603   -2.693689    0.661058
     46          1           0       -1.788142   -2.152240   -0.814961
     47          1           0       -4.058140   -0.722282    0.664163
     48          1           0       -3.623933   -0.121076   -3.093538
     49          1           0       -2.801875   -1.672342   -2.879864
     50          1           0       -4.460384   -1.621257   -3.497821
     51          1           0       -5.968601   -1.684749   -0.122277
     52          1           0       -6.219370   -2.005866   -1.924906
     53          1           0        2.390242    2.040845   -3.376369
     54          1           0        0.971978    3.099958   -3.495739
     55          1           0        0.752695    1.338559   -3.394942
     56          1           0        3.184756    3.358950   -1.435088
     57          1           0        1.747930    4.396398   -1.379073
     58          1           0        2.242883    3.478405    0.058810
     59          1           0       -1.160212    2.589910    4.489094
     60          1           0       -0.180959    3.305935    3.200181
     61          1           0       -1.922898    3.566037    3.219310
     62          6           0        5.501316   -0.132046    0.093978
     63          1           0        4.966743    0.349980    0.918778
     64          1           0        6.572762   -0.090955    0.321238
     65          1           0        5.328444    0.460943   -0.812872
 ---------------------------------------------------------------------

 The electronic state is 1-A.
 Alpha  occ. eigenvalues --  -19.19780 -19.16737 -19.15887 -19.12700 -19.12452
 Alpha  occ. eigenvalues --  -10.27092 -10.26962 -10.26903 -10.26456 -10.25905
 Alpha  occ. eigenvalues --  -10.25858 -10.24975 -10.21310 -10.20735 -10.20702
 Alpha  occ. eigenvalues --  -10.20325 -10.19917 -10.19430 -10.19347 -10.19264
 Alpha  occ. eigenvalues --  -10.19241 -10.19136 -10.18819 -10.18707 -10.18447
 Alpha  occ. eigenvalues --  -10.18430 -10.18264 -10.18060 -10.17090 -10.16863
 Alpha  occ. eigenvalues --  -10.16090  -1.09166  -1.05952  -1.03166  -1.02596
 Alpha  occ. eigenvalues --   -1.02117  -0.86620  -0.83724  -0.82450  -0.81372
 Alpha  occ. eigenvalues --   -0.80193  -0.79469  -0.76762  -0.74204  -0.73172
 Alpha  occ. eigenvalues --   -0.72097  -0.71367  -0.70152  -0.70001  -0.67778
 Alpha  occ. eigenvalues --   -0.64904  -0.64155  -0.62852  -0.61837  -0.60559
 Alpha  occ. eigenvalues --   -0.59238  -0.59033  -0.56910  -0.55066  -0.53700
 Alpha  occ. eigenvalues --   -0.52899  -0.52076  -0.50436  -0.50412  -0.49439
 Alpha  occ. eigenvalues --   -0.48355  -0.47495  -0.46935  -0.46424  -0.45622
 Alpha  occ. eigenvalues --   -0.44925  -0.44390  -0.43912  -0.43690  -0.43206
 Alpha  occ. eigenvalues --   -0.42925  -0.42052  -0.41935  -0.41556  -0.41359
 Alpha  occ. eigenvalues --   -0.41065  -0.40660  -0.40583  -0.40274  -0.40025
 Alpha  occ. eigenvalues --   -0.39254  -0.39157  -0.38524  -0.38239  -0.37794
 Alpha  occ. eigenvalues --   -0.37658  -0.37446  -0.37314  -0.36842  -0.36708
 Alpha  occ. eigenvalues --   -0.36217  -0.35698  -0.35240  -0.34652  -0.34418
 Alpha  occ. eigenvalues --   -0.33821  -0.33744  -0.32834  -0.32756  -0.32057
 Alpha  occ. eigenvalues --   -0.31762  -0.31265  -0.31038  -0.28343  -0.27128
 Alpha  occ. eigenvalues --   -0.25650  -0.24587  -0.24130  -0.23293  -0.22728
 Alpha virt. eigenvalues --   -0.04554  -0.01356   0.00622   0.02330   0.05349
 Alpha virt. eigenvalues --    0.07131   0.08327   0.08547   0.09196   0.09966
 Alpha virt. eigenvalues --    0.10356   0.10977   0.11050   0.12235   0.12363

 Mulliken atomic charges:
              1
     1  C   -0.183948
     2  C    0.194400
     3  C   -0.190503
     4  C    0.327841
     5  C   -0.049687
     6  C   -0.339009
     7  C    0.189992
     8  C    0.396346
     9  C   -0.095602
    10  C    0.428692
    11  C    0.426193
    12  O   -0.447957
    13  C   -0.161315
    14  C   -0.243923
    15  C   -0.454323
    16  O   -0.496980
    17  C   -0.163055
    18  C    0.304628
    19  O   -0.538350
    20  C   -0.321504
    21  O   -0.672439
    22  C   -0.310758
    23  C    0.077095
    24  O   -0.597221
    25  C    0.240025
    26  C   -0.546768
    27  C   -0.403928
    28  C   -0.468197
    29  C   -0.460014
    30  H    0.143969
    31  H    0.163939
    32  C   -0.519349
    33  H    0.123825
    34  H    0.188297
    35  H    0.146162
    36  H    0.143475
    37  H    0.154443
    38  H    0.122953
    39  H    0.157468
    40  H    0.146440
    41  H    0.164458
    42  H    0.167425
    43  H    0.151662
    44  H    0.433396
    45  H    0.169987
    46  H    0.162807
    47  H    0.136394
    48  H    0.166078
    49  H    0.174345
    50  H    0.161500
    51  H    0.142122
    52  H    0.141810
    53  H    0.155705
    54  H    0.144153
    55  H    0.191938
    56  H    0.163792
    57  H    0.151361
    58  H    0.163734
    59  H    0.158763
    60  H    0.157051
    61  H    0.149694
    62  C   -0.451631
    63  H    0.159838
    64  H    0.138179
    65  H    0.134085
 Sum of Mulliken atomic charges =   0.00000

 Dipole moment (field-independent basis, Debye):
    X=             -3.1904    Y=              4.2429    Z=             -3.0382  Tot=              6.1165
 Quadrupole moment (field-independent basis, Debye-Ang):
   XX=           -181.8453   YY=           -180.9318   ZZ=           -184.9076
   XY=              7.8678   XZ=             -7.8573   YZ=              5.5446

 Normal termination of Gaussian 09 at Wed Mar 24 14:21:28 2021.
