 Gaussian 09, Revision B.01,
 Gaussian 09:  EM64L-G09RevB.01 12-Aug-2010

 ---------------------------------------
 # opt rb3lyp/6-31g(d) geom=connectivity
 ---------------------------------------

 -------------------
 Title Card Required
 -------------------
 Symbolic Z-matrix:
 Charge =  0 Multiplicity = 1

 SCF Done:  E(RB3LYP) =  -1387.30267447     A.U. after   16 cycles
 SCF Done:  E(RB3LYP) =  -1387.31484803     A.U. after   13 cycles
 SCF Done:  E(RB3LYP) =  -1387.31696073     A.U. after   13 cycles
 SCF Done:  E(RB3LYP) =  -1387.31650195     A.U. after   13 cycles
 SCF Done:  E(RB3LYP) =  -1387.31769505     A.U. after   13 cycles
 SCF Done:  E(RB3LYP) =  -1387.31788526     A.U. after   12 cycles
 SCF Done:  E(RB3LYP) =  -1387.31789035     A.U. after   12 cycles
 SCF Done:  E(RB3LYP) =  -1387.31799720     A.U. after   11 cycles
 SCF Done:  E(RB3LYP) =  -1387.31805069     A.U. after   11 cycles
 SCF Done:  E(RB3LYP) =  -1387.31788740     A.U. after   13 cycles
 SCF Done:  E(RB3LYP) =  -1387.31810004     A.U. after   13 cycles
 SCF Done:  E(RB3LYP) =  -1387.31819350     A.U. after   12 cycles
 SCF Done:  E(RB3LYP) =  -1387.31823779     A.U. after   12 cycles
 SCF Done:  E(RB3LYP) =  -1387.31824451     A.U. after   11 cycles
 SCF Done:  E(RB3LYP) =  -1387.31825109     A.U. after   11 cycles
 SCF Done:  E(RB3LYP) =  -1387.31825839     A.U. after   11 cycles
 SCF Done:  E(RB3LYP) =  -1387.31825895     A.U. after   10 cycles
 SCF Done:  E(RB3LYP) =  -1387.31825948     A.U. after   10 cycles
 SCF Done:  E(RB3LYP) =  -1387.31826010     A.U. after   10 cycles
 Optimization completed.
    -- Stationary point found.

                         Standard orientation:
 ---------------------------------------------------------------------
 Center     Atomic      Atomic             Coordinates (Angstroms)
 Number     Number       Type             X           Y           Z
 ---------------------------------------------------------------------
      1          6           0       -1.701077    0.698146    3.098467
      2          6           0       -1.668968    1.806647    2.350218
      3          6           0       -1.747114    1.741757    0.839112
      4          6           0       -1.570142    0.325763    0.205784
      5          6           0       -1.227422   -0.871553    1.134108
      6          6           0       -1.830825   -0.694932    2.549348
      7          6           0       -0.525559    0.535168   -0.926019
      8          6           0        0.900375    0.356942   -0.457198
      9          6           0        1.297801   -0.483833    0.522662
     10          6           0        0.280061   -1.211269    1.295724
     11          6           0        2.744703   -0.600946    0.957315
     12          8           0        3.067406   -0.279618    2.084629
     13          6           0        3.737122   -1.163385   -0.058456
     14          6           0        5.188012   -0.888019    0.368555
     15          6           0        3.434050   -2.666841   -0.250558
     16          8           0        0.591719   -2.102563    2.075156
     17          6           0       -0.483713    2.040835   -1.267286
     18          6           0        0.936281    2.221076   -1.857304
     19          8           0        1.721779    1.201203   -1.107447
     20          6           0       -0.735413    2.677651    0.114210
     21          8           0       -0.740591   -0.339975   -2.017884
     22          6           0       -1.920634   -2.050275    0.399709
     23          6           0       -3.195068   -1.408587   -0.139346
     24          8           0       -2.810611   -0.037970   -0.453031
     25          6           0       -3.863437   -2.007914   -1.359446
     26          6           0       -5.066653   -1.245123   -1.859792
     27          6           0       -3.450679   -3.145198   -1.927754
     28          6           0        1.010796    1.870545   -3.345253
     29          6           0        1.612349    3.561734   -1.581997
     30          1           0       -1.259006    2.315173   -1.989435
     31          1           0       -2.757740    2.053193    0.538139
     32          6           0       -1.622616    3.181867    2.969796
     33          1           0       -1.673956    0.793210    4.183111
     34          1           0       -2.895098   -0.974558    2.533847
     35          1           0       -1.338936   -1.419615    3.205068
     36          1           0        3.538176   -0.657461   -1.014533
     37          1           0        5.397388   -1.437503    1.294281
     38          1           0        5.278095    0.173682    0.628561
     39          1           0        4.073171   -3.093283   -1.030033
     40          1           0        2.392824   -2.829831   -0.546670
     41          1           0        3.609310   -3.217955    0.680106
     42          1           0       -1.103079    3.705354    0.043830
     43          1           0        0.197645    2.708577    0.687203
     44          1           0       -1.713868   -0.422171   -2.069479
     45          1           0       -1.290767   -2.399714   -0.423174
     46          1           0       -2.112252   -2.889780    1.073036
     47          1           0       -3.952167   -1.352209    0.658794
     48          1           0       -5.842026   -1.186296   -1.083471
     49          1           0       -4.799770   -0.212662   -2.112806
     50          1           0       -5.504197   -1.720365   -2.742662
     51          1           0       -2.597675   -3.708323   -1.563251
     52          1           0       -3.971593   -3.563372   -2.785518
     53          1           0        0.540128    0.906014   -3.544103
     54          1           0        2.056851    1.832658   -3.666702
     55          1           0        0.500277    2.639739   -3.936295
     56          1           0        1.058115    4.367054   -2.076796
     57          1           0        2.631669    3.555811   -1.980917
     58          1           0        1.667860    3.782767   -0.513606
     59          1           0       -1.639660    3.121522    4.062238
     60          1           0       -0.721203    3.737235    2.680314
     61          1           0       -2.481755    3.789857    2.651372
     62          6           0        6.228404   -1.238536   -0.700880
     63          1           0        6.239132   -2.309360   -0.933456
     64          1           0        6.036880   -0.697800   -1.636690
     65          1           0        7.235793   -0.968518   -0.363992
 ---------------------------------------------------------------------

 The electronic state is 1-A.
 Alpha  occ. eigenvalues --  -19.19593 -19.16626 -19.15746 -19.12668 -19.12384
 Alpha  occ. eigenvalues --  -10.26947 -10.26870 -10.26786 -10.26383 -10.25722
 Alpha  occ. eigenvalues --  -10.25684 -10.25108 -10.21170 -10.20777 -10.20609
 Alpha  occ. eigenvalues --  -10.20268 -10.19843 -10.19432 -10.19210 -10.19147
 Alpha  occ. eigenvalues --  -10.19035 -10.18887 -10.18876 -10.18654 -10.18364
 Alpha  occ. eigenvalues --  -10.18315 -10.18302 -10.17960 -10.17052 -10.16803
 Alpha  occ. eigenvalues --  -10.16608  -1.08986  -1.05811  -1.03091  -1.02373
 Alpha  occ. eigenvalues --   -1.02059  -0.86586  -0.83634  -0.82366  -0.81324
 Alpha  occ. eigenvalues --   -0.80144  -0.79511  -0.76670  -0.74200  -0.73098
 Alpha  occ. eigenvalues --   -0.72083  -0.71228  -0.70016  -0.69465  -0.67752
 Alpha  occ. eigenvalues --   -0.64885  -0.64595  -0.63272  -0.62016  -0.60491
 Alpha  occ. eigenvalues --   -0.59272  -0.58403  -0.56781  -0.54878  -0.53305
 Alpha  occ. eigenvalues --   -0.52787  -0.52050  -0.50500  -0.50290  -0.49171
 Alpha  occ. eigenvalues --   -0.48123  -0.47550  -0.46517  -0.46224  -0.45618
 Alpha  occ. eigenvalues --   -0.45226  -0.44868  -0.44370  -0.43482  -0.43314
 Alpha  occ. eigenvalues --   -0.42791  -0.42606  -0.41870  -0.41491  -0.41248
 Alpha  occ. eigenvalues --   -0.40615  -0.40517  -0.40440  -0.39976  -0.39533
 Alpha  occ. eigenvalues --   -0.38971  -0.38862  -0.38332  -0.38146  -0.37906
 Alpha  occ. eigenvalues --   -0.37509  -0.37492  -0.37348  -0.36926  -0.36677
 Alpha  occ. eigenvalues --   -0.36451  -0.35976  -0.35001  -0.34419  -0.34261
 Alpha  occ. eigenvalues --   -0.33605  -0.33551  -0.33325  -0.32720  -0.31887
 Alpha  occ. eigenvalues --   -0.31513  -0.31297  -0.30996  -0.28059  -0.26640
 Alpha  occ. eigenvalues --   -0.26293  -0.24535  -0.24014  -0.23251  -0.22660
 Alpha virt. eigenvalues --   -0.04402  -0.01033   0.00352   0.02378   0.05511
 Alpha virt. eigenvalues --    0.07316   0.08666   0.08960   0.09241   0.10063
 Alpha virt. eigenvalues --    0.10623   0.10841   0.11151   0.11961   0.12431

 Mulliken atomic charges:
              1
     1  C   -0.184244
     2  C    0.193575
     3  C   -0.188478
     4  C    0.324160
     5  C   -0.056209
     6  C   -0.334885
     7  C    0.203578
     8  C    0.395035
     9  C   -0.097556
    10  C    0.434224
    11  C    0.421196
    12  O   -0.441414
    13  C   -0.167810
    14  C   -0.242022
    15  C   -0.456681
    16  O   -0.499282
    17  C   -0.164429
    18  C    0.305822
    19  O   -0.539798
    20  C   -0.322345
    21  O   -0.659152
    22  C   -0.324665
    23  C    0.096275
    24  O   -0.591804
    25  C    0.182318
    26  C   -0.508093
    27  C   -0.393293
    28  C   -0.468192
    29  C   -0.459390
    30  H    0.143426
    31  H    0.163300
    32  C   -0.519485
    33  H    0.124125
    34  H    0.145189
    35  H    0.186614
    36  H    0.148988
    37  H    0.148292
    38  H    0.141237
    39  H    0.150974
    40  H    0.155671
    41  H    0.163635
    42  H    0.150743
    43  H    0.168764
    44  H    0.413892
    45  H    0.167824
    46  H    0.168703
    47  H    0.138692
    48  H    0.156625
    49  H    0.170657
    50  H    0.154247
    51  H    0.152900
    52  H    0.142044
    53  H    0.193037
    54  H    0.155002
    55  H    0.143494
    56  H    0.150886
    57  H    0.162580
    58  H    0.163864
    59  H    0.158900
    60  H    0.157836
    61  H    0.148921
    62  C   -0.452573
    63  H    0.143800
    64  H    0.137274
    65  H    0.143481
 Sum of Mulliken atomic charges =   0.00000

 Dipole moment (field-independent basis, Debye):
    X=             -3.9736    Y=              2.9100    Z=             -3.7657  Tot=              6.1999
 Quadrupole moment (field-independent basis, Debye-Ang):
   XX=           -181.2493   YY=           -175.2319   ZZ=           -189.4852
   XY=              3.6500   XZ=             -8.6179   YZ=              1.9064

 Normal termination of Gaussian 09 at Wed Mar 24 17:12:19 2021.
