 Gaussian 09, Revision B.01,
 Gaussian 09:  EM64L-G09RevB.01 12-Aug-2010

 ---------------------------------------
 # opt rb3lyp/6-31g(d) geom=connectivity
 ---------------------------------------

 -------------------
 Title Card Required
 -------------------
 Symbolic Z-matrix:
 Charge =  0 Multiplicity = 1

 SCF Done:  E(RB3LYP) =  -1387.30093550     A.U. after   16 cycles
 SCF Done:  E(RB3LYP) =  -1387.31361755     A.U. after   13 cycles
 SCF Done:  E(RB3LYP) =  -1387.31505319     A.U. after   13 cycles
 SCF Done:  E(RB3LYP) =  -1387.31328405     A.U. after   13 cycles
 SCF Done:  E(RB3LYP) =  -1387.31572756     A.U. after   13 cycles
 SCF Done:  E(RB3LYP) =  -1387.31607191     A.U. after   12 cycles
 SCF Done:  E(RB3LYP) =  -1387.31605251     A.U. after   12 cycles
 SCF Done:  E(RB3LYP) =  -1387.31622498     A.U. after   12 cycles
 SCF Done:  E(RB3LYP) =  -1387.31626899     A.U. after   11 cycles
 SCF Done:  E(RB3LYP) =  -1387.31628692     A.U. after   10 cycles
 SCF Done:  E(RB3LYP) =  -1387.31628964     A.U. after    8 cycles
 SCF Done:  E(RB3LYP) =  -1387.31629089     A.U. after    8 cycles
 SCF Done:  E(RB3LYP) =  -1387.31629114     A.U. after    7 cycles
 SCF Done:  E(RB3LYP) =  -1387.31629128     A.U. after    6 cycles
 Optimization completed.
    -- Stationary point found.

                         Standard orientation:
 ---------------------------------------------------------------------
 Center     Atomic      Atomic             Coordinates (Angstroms)
 Number     Number       Type             X           Y           Z
 ---------------------------------------------------------------------
      1          6           0       -2.049904    0.243795    2.750675
      2          6           0       -2.560243    1.244120    2.022584
      3          6           0       -1.978467    1.566172    0.665819
      4          6           0       -1.319551    0.374817   -0.104047
      5          6           0       -0.926241   -0.884411    0.745587
      6          6           0       -0.897074   -0.600608    2.280437
      7          6           0       -0.137978    1.029848   -0.889177
      8          6           0        1.209256    0.761449   -0.245390
      9          6           0        1.566748   -0.430186    0.274384
     10          6           0        0.499025   -1.428256    0.453879
     11          6           0        2.932445   -0.715988    0.875646
     12          8           0        3.065339   -0.611383    2.082281
     13          6           0        4.073153   -1.184103   -0.022096
     14          6           0        3.938577   -2.708278   -0.287235
     15          6           0        4.167355   -0.404344   -1.342873
     16          8           0        0.722693   -2.628623    0.548895
     17          6           0       -0.226231    2.561520   -0.704918
     18          6           0        1.246662    3.019588   -0.818811
     19          8           0        1.998733    1.847163   -0.301587
     20          6           0       -0.903936    2.684648    0.673691
     21          8           0       -0.078254    0.592332   -2.232661
     22          6           0       -2.000303   -1.937470    0.368919
     23          6           0       -2.998285   -1.192374   -0.536962
     24          8           0       -2.237362   -0.112954   -1.096010
     25          6           0       -3.644892   -2.030866   -1.614253
     26          6           0       -4.467911   -3.186264   -1.098431
     27          6           0       -3.519020   -1.760925   -2.915469
     28          6           0        1.673316    3.236716   -2.272963
     29          6           0        1.649687    4.201207    0.057969
     30          1           0       -0.843250    3.013042   -1.487469
     31          1           0       -2.787305    1.904153    0.003322
     32          6           0       -3.691805    2.114667    2.504419
     33          1           0       -2.453912    0.035838    3.740478
     34          1           0       -0.885958   -1.566895    2.795706
     35          1           0        0.055843   -0.119775    2.546666
     36          1           0        4.984912   -1.020833    0.566808
     37          1           0        2.976587   -2.906114   -0.774705
     38          1           0        4.721623   -2.977102   -1.009372
     39          1           0        5.038989   -0.746467   -1.912198
     40          1           0        4.272057    0.671544   -1.172542
     41          1           0        3.277825   -0.562648   -1.962643
     42          1           0       -1.336479    3.674134    0.850685
     43          1           0       -0.185672    2.495620    1.480321
     44          1           0       -0.903805    0.085432   -2.368984
     45          1           0       -2.493997   -2.352194    1.251378
     46          1           0       -1.524575   -2.765737   -0.162783
     47          1           0       -3.796474   -0.757596    0.087452
     48          1           0       -3.850208   -3.908506   -0.548986
     49          1           0       -5.245266   -2.841684   -0.402392
     50          1           0       -4.959112   -3.717122   -1.918744
     51          1           0       -2.945772   -0.914175   -3.276426
     52          1           0       -4.000892   -2.382309   -3.665601
     53          1           0        1.390276    2.383614   -2.893919
     54          1           0        2.757987    3.375449   -2.328204
     55          1           0        1.191737    4.135330   -2.675434
     56          1           0        1.109649    5.101616   -0.254899
     57          1           0        2.722198    4.395063   -0.043738
     58          1           0        1.437159    4.015959    1.113782
     59          1           0       -4.031470    1.817921    3.501773
     60          1           0       -3.393512    3.171192    2.551727
     61          1           0       -4.551349    2.064507    1.821439
     62          6           0        4.064634   -3.583620    0.962159
     63          1           0        3.255634   -3.383949    1.670304
     64          1           0        5.017311   -3.410249    1.477389
     65          1           0        4.015958   -4.644460    0.691205
 ---------------------------------------------------------------------

 The electronic state is 1-A.
 Alpha  occ. eigenvalues --  -19.19441 -19.17110 -19.15009 -19.13222 -19.13093
 Alpha  occ. eigenvalues --  -10.27154 -10.26918 -10.26628 -10.26476 -10.26188
 Alpha  occ. eigenvalues --  -10.25891 -10.24908 -10.21436 -10.20477 -10.20436
 Alpha  occ. eigenvalues --  -10.20191 -10.20144 -10.19818 -10.19457 -10.19069
 Alpha  occ. eigenvalues --  -10.19047 -10.18896 -10.18798 -10.18787 -10.18725
 Alpha  occ. eigenvalues --  -10.18349 -10.18246 -10.17769 -10.17176 -10.16789
 Alpha  occ. eigenvalues --  -10.15431  -1.08826  -1.06592  -1.03426  -1.02650
 Alpha  occ. eigenvalues --   -1.02245  -0.86897  -0.83684  -0.82150  -0.81321
 Alpha  occ. eigenvalues --   -0.80021  -0.79540  -0.76675  -0.73948  -0.73006
 Alpha  occ. eigenvalues --   -0.72107  -0.71366  -0.70098  -0.69060  -0.68353
 Alpha  occ. eigenvalues --   -0.64781  -0.63711  -0.63496  -0.61652  -0.60757
 Alpha  occ. eigenvalues --   -0.58926  -0.58775  -0.56789  -0.55558  -0.53789
 Alpha  occ. eigenvalues --   -0.53014  -0.51916  -0.50985  -0.49998  -0.49291
 Alpha  occ. eigenvalues --   -0.47899  -0.47087  -0.46515  -0.46193  -0.45813
 Alpha  occ. eigenvalues --   -0.44990  -0.44597  -0.44050  -0.43672  -0.43110
 Alpha  occ. eigenvalues --   -0.42416  -0.42340  -0.42147  -0.41715  -0.41600
 Alpha  occ. eigenvalues --   -0.40894  -0.40552  -0.40171  -0.40093  -0.39988
 Alpha  occ. eigenvalues --   -0.39297  -0.39158  -0.38941  -0.38415  -0.38344
 Alpha  occ. eigenvalues --   -0.37651  -0.37498  -0.36941  -0.36462  -0.36097
 Alpha  occ. eigenvalues --   -0.35535  -0.35329  -0.35069  -0.34785  -0.34510
 Alpha  occ. eigenvalues --   -0.33697  -0.33559  -0.33084  -0.32613  -0.32332
 Alpha  occ. eigenvalues --   -0.32021  -0.31165  -0.30682  -0.28250  -0.27357
 Alpha  occ. eigenvalues --   -0.25159  -0.24597  -0.24317  -0.23472  -0.22609
 Alpha virt. eigenvalues --   -0.03890  -0.01427   0.01076   0.01918   0.03764
 Alpha virt. eigenvalues --    0.06938   0.08204   0.08571   0.09041   0.10063
 Alpha virt. eigenvalues --    0.10490   0.10790   0.11251   0.11634   0.12273

 Mulliken atomic charges:
              1
     1  C   -0.194643
     2  C    0.198424
     3  C   -0.198467
     4  C    0.309772
     5  C   -0.023881
     6  C   -0.332696
     7  C    0.197270
     8  C    0.421518
     9  C   -0.111923
    10  C    0.407044
    11  C    0.420593
    12  O   -0.445216
    13  C   -0.150052
    14  C   -0.261982
    15  C   -0.469865
    16  O   -0.496829
    17  C   -0.154642
    18  C    0.297520
    19  O   -0.536723
    20  C   -0.309706
    21  O   -0.674910
    22  C   -0.326495
    23  C    0.116349
    24  O   -0.588737
    25  C    0.183098
    26  C   -0.518663
    27  C   -0.395306
    28  C   -0.466540
    29  C   -0.460414
    30  H    0.147823
    31  H    0.149175
    32  C   -0.521580
    33  H    0.125436
    34  H    0.164554
    35  H    0.180443
    36  H    0.144682
    37  H    0.160841
    38  H    0.130738
    39  H    0.143609
    40  H    0.156734
    41  H    0.160132
    42  H    0.150984
    43  H    0.165243
    44  H    0.428407
    45  H    0.150120
    46  H    0.183860
    47  H    0.136264
    48  H    0.168959
    49  H    0.154584
    50  H    0.160536
    51  H    0.146198
    52  H    0.136268
    53  H    0.194645
    54  H    0.156012
    55  H    0.144345
    56  H    0.150360
    57  H    0.163244
    58  H    0.163355
    59  H    0.158103
    60  H    0.155790
    61  H    0.155096
    62  C   -0.445273
    63  H    0.172417
    64  H    0.136476
    65  H    0.137527
 Sum of Mulliken atomic charges =   0.00000

 Dipole moment (field-independent basis, Debye):
    X=             -3.9189    Y=              3.5988    Z=             -0.9720  Tot=              5.4086
 Quadrupole moment (field-independent basis, Debye-Ang):
   XX=           -179.8722   YY=           -175.9705   ZZ=           -189.2870
   XY=              6.0461   XZ=            -10.7773   YZ=              2.0416

 Normal termination of Gaussian 09 at Wed Mar 24 17:57:15 2021.
