 Gaussian 09, Revision B.01,
 Gaussian 09:  EM64L-G09RevB.01 12-Aug-2010

 ---------------------------------------
 # opt rb3lyp/6-31g(d) geom=connectivity
 ---------------------------------------

 -------------------
 Title Card Required
 -------------------
 Symbolic Z-matrix:
 Charge =  0 Multiplicity = 1

 SCF Done:  E(RB3LYP) =  -1387.29905304     A.U. after   16 cycles
 SCF Done:  E(RB3LYP) =  -1387.31153370     A.U. after   13 cycles
 SCF Done:  E(RB3LYP) =  -1387.31398691     A.U. after   13 cycles
 SCF Done:  E(RB3LYP) =  -1387.31418625     A.U. after   13 cycles
 SCF Done:  E(RB3LYP) =  -1387.31453672     A.U. after   13 cycles
 SCF Done:  E(RB3LYP) =  -1387.31497325     A.U. after   13 cycles
 SCF Done:  E(RB3LYP) =  -1387.31512080     A.U. after   12 cycles
 SCF Done:  E(RB3LYP) =  -1387.31475547     A.U. after   14 cycles
 SCF Done:  E(RB3LYP) =  -1387.31485621     A.U. after   13 cycles
 SCF Done:  E(RB3LYP) =  -1387.31504008     A.U. after   14 cycles
 SCF Done:  E(RB3LYP) =  -1387.31532992     A.U. after   12 cycles
 SCF Done:  E(RB3LYP) =  -1387.31532340     A.U. after   14 cycles
 SCF Done:  E(RB3LYP) =  -1387.31541766     A.U. after   13 cycles
 SCF Done:  E(RB3LYP) =  -1387.31539485     A.U. after   14 cycles
 SCF Done:  E(RB3LYP) =  -1387.31543712     A.U. after   12 cycles
 SCF Done:  E(RB3LYP) =  -1387.31544142     A.U. after   10 cycles
 SCF Done:  E(RB3LYP) =  -1387.31544321     A.U. after    9 cycles
 SCF Done:  E(RB3LYP) =  -1387.31544440     A.U. after    9 cycles
 Optimization completed.
    -- Stationary point found.

                         Standard orientation:
 ---------------------------------------------------------------------
 Center     Atomic      Atomic             Coordinates (Angstroms)
 Number     Number       Type             X           Y           Z
 ---------------------------------------------------------------------
      1          6           0       -1.396936   -0.413163    3.165222
      2          6           0       -1.280933    0.890365    2.891339
      3          6           0       -1.450354    1.423405    1.484586
      4          6           0       -1.510429    0.360797    0.339734
      5          6           0       -1.332513   -1.145747    0.695270
      6          6           0       -1.744262   -1.470510    2.158043
      7          6           0       -0.473792    0.860279   -0.706496
      8          6           0        0.921337    0.326985   -0.468646
      9          6           0        1.207186   -0.902092    0.020653
     10          6           0        0.082284   -1.752188    0.465585
     11          6           0        2.611482   -1.416660    0.211317
     12          8           0        2.914635   -1.987778    1.244789
     13          6           0        3.618515   -1.251089   -0.933288
     14          6           0        4.811546   -0.341459   -0.535963
     15          6           0        4.061781   -2.649722   -1.402157
     16          8           0        0.223482   -2.948016    0.670272
     17          6           0       -0.221418    2.362036   -0.452240
     18          6           0        1.197053    2.576353   -1.031492
     19          8           0        1.841324    1.258917   -0.771214
     20          6           0       -0.345786    2.445168    1.081081
     21          8           0       -0.853928    0.516287   -2.025646
     22          6           0       -2.328503   -1.828802   -0.278755
     23          6           0       -3.479010   -0.821037   -0.325328
     24          8           0       -2.806107    0.462954   -0.316949
     25          6           0       -4.425562   -0.933509   -1.500418
     26          6           0       -3.930410   -0.547466   -2.872472
     27          6           0       -5.663942   -1.395365   -1.299907
     28          6           0        1.195976    2.806905   -2.544622
     29          6           0        2.061739    3.617737   -0.326416
     30          1           0       -0.964044    2.987648   -0.956788
     31          1           0       -2.417821    1.942176    1.429454
     32          6           0       -1.037337    1.910556    3.976680
     33          1           0       -1.291276   -0.746219    4.196999
     34          1           0       -2.830537   -1.644619    2.199333
     35          1           0       -1.286058   -2.428662    2.421585
     36          1           0        3.108431   -0.755562   -1.766484
     37          1           0        5.380394   -0.142772   -1.455406
     38          1           0        4.411119    0.627469   -0.212550
     39          1           0        3.212327   -3.219340   -1.795466
     40          1           0        4.811574   -2.565506   -2.197936
     41          1           0        4.490744   -3.221382   -0.574895
     42          1           0        0.600003    2.148975    1.547734
     43          1           0       -0.573141    3.455887    1.431589
     44          1           0       -1.827029    0.604713   -2.007835
     45          1           0       -2.637628   -2.814269    0.077666
     46          1           0       -1.879046   -1.947492   -1.269367
     47          1           0       -4.072761   -0.898913    0.595278
     48          1           0       -4.658025   -0.822954   -3.641267
     49          1           0       -3.777290    0.537782   -2.942766
     50          1           0       -2.977956   -1.029736   -3.122892
     51          1           0       -6.029323   -1.645413   -0.306827
     52          1           0       -6.356656   -1.548798   -2.123159
     53          1           0        2.220972    2.767789   -2.927588
     54          1           0        0.784954    3.797582   -2.770732
     55          1           0        0.593068    2.053455   -3.054519
     56          1           0        3.064149    3.632349   -0.766107
     57          1           0        1.621756    4.613287   -0.451812
     58          1           0        2.162054    3.414351    0.742122
     59          1           0       -0.997396    1.435274    4.961525
     60          1           0       -0.096846    2.457204    3.830979
     61          1           0       -1.837983    2.663891    3.997080
     62          6           0        5.762155   -0.887586    0.535560
     63          1           0        6.255461   -1.808565    0.205887
     64          1           0        6.547290   -0.152915    0.750953
     65          1           0        5.232073   -1.110746    1.464986
 ---------------------------------------------------------------------

 The electronic state is 1-A.
 Alpha  occ. eigenvalues --  -19.20052 -19.16764 -19.15948 -19.12359 -19.12331
 Alpha  occ. eigenvalues --  -10.27273 -10.27057 -10.26904 -10.26214 -10.25996
 Alpha  occ. eigenvalues --  -10.25870 -10.24973 -10.21274 -10.20803 -10.20737
 Alpha  occ. eigenvalues --  -10.20384 -10.20023 -10.19419 -10.19361 -10.19354
 Alpha  occ. eigenvalues --  -10.19337 -10.19253 -10.18873 -10.18715 -10.18537
 Alpha  occ. eigenvalues --  -10.18533 -10.18192 -10.18128 -10.17388 -10.16555
 Alpha  occ. eigenvalues --  -10.15626  -1.09403  -1.06016  -1.03067  -1.02645
 Alpha  occ. eigenvalues --   -1.01844  -0.86679  -0.83806  -0.82468  -0.81381
 Alpha  occ. eigenvalues --   -0.80229  -0.79163  -0.76814  -0.74228  -0.73222
 Alpha  occ. eigenvalues --   -0.71852  -0.71158  -0.70261  -0.70018  -0.67836
 Alpha  occ. eigenvalues --   -0.65138  -0.64575  -0.62975  -0.61767  -0.60621
 Alpha  occ. eigenvalues --   -0.59315  -0.58539  -0.56865  -0.55080  -0.53686
 Alpha  occ. eigenvalues --   -0.52847  -0.52128  -0.50442  -0.50292  -0.49453
 Alpha  occ. eigenvalues --   -0.47721  -0.47489  -0.46972  -0.46457  -0.45730
 Alpha  occ. eigenvalues --   -0.44969  -0.44426  -0.44301  -0.43975  -0.43712
 Alpha  occ. eigenvalues --   -0.42756  -0.42432  -0.42040  -0.41596  -0.41394
 Alpha  occ. eigenvalues --   -0.41061  -0.40834  -0.40571  -0.40245  -0.39379
 Alpha  occ. eigenvalues --   -0.39305  -0.38644  -0.38355  -0.38050  -0.37765
 Alpha  occ. eigenvalues --   -0.37535  -0.37353  -0.37000  -0.36994  -0.36716
 Alpha  occ. eigenvalues --   -0.36469  -0.35884  -0.35262  -0.34728  -0.34423
 Alpha  occ. eigenvalues --   -0.33850  -0.33657  -0.33139  -0.32851  -0.32116
 Alpha  occ. eigenvalues --   -0.31339  -0.31184  -0.30860  -0.28386  -0.27172
 Alpha  occ. eigenvalues --   -0.25662  -0.24524  -0.24225  -0.23363  -0.22219
 Alpha virt. eigenvalues --   -0.04761  -0.01573   0.00622   0.02249   0.05682
 Alpha virt. eigenvalues --    0.07216   0.08285   0.08450   0.09326   0.09921
 Alpha virt. eigenvalues --    0.10324   0.10599   0.11053   0.12126   0.12463

 Mulliken atomic charges:
              1
     1  C   -0.184386
     2  C    0.192827
     3  C   -0.190068
     4  C    0.327636
     5  C   -0.047928
     6  C   -0.338900
     7  C    0.189076
     8  C    0.388430
     9  C   -0.089791
    10  C    0.423064
    11  C    0.425070
    12  O   -0.451649
    13  C   -0.142876
    14  C   -0.261962
    15  C   -0.453865
    16  O   -0.485745
    17  C   -0.162077
    18  C    0.304665
    19  O   -0.536326
    20  C   -0.321773
    21  O   -0.671953
    22  C   -0.310422
    23  C    0.075382
    24  O   -0.596854
    25  C    0.240705
    26  C   -0.546343
    27  C   -0.404030
    28  C   -0.468720
    29  C   -0.461717
    30  H    0.144817
    31  H    0.164397
    32  C   -0.519022
    33  H    0.124125
    34  H    0.146606
    35  H    0.188429
    36  H    0.133150
    37  H    0.127778
    38  H    0.140520
    39  H    0.152030
    40  H    0.138368
    41  H    0.172766
    42  H    0.165555
    43  H    0.151977
    44  H    0.433790
    45  H    0.170493
    46  H    0.163334
    47  H    0.135863
    48  H    0.161726
    49  H    0.166001
    50  H    0.174010
    51  H    0.142173
    52  H    0.141879
    53  H    0.156468
    54  H    0.144697
    55  H    0.193073
    56  H    0.164378
    57  H    0.152572
    58  H    0.163044
    59  H    0.158991
    60  H    0.156099
    61  H    0.150212
    62  C   -0.447606
    63  H    0.142092
    64  H    0.130228
    65  H    0.175516
 Sum of Mulliken atomic charges =   0.00000

 Dipole moment (field-independent basis, Debye):
    X=             -3.2910    Y=              5.4557    Z=             -1.5956  Tot=              6.5681
 Quadrupole moment (field-independent basis, Debye-Ang):
   XX=           -181.5869   YY=           -185.7191   ZZ=           -181.0668
   XY=             11.4883   XZ=             -5.0066   YZ=              5.0248

 Normal termination of Gaussian 09 at Wed Mar 24 17:04:28 2021.
