 Gaussian 09, Revision B.01,
 Gaussian 09:  EM64L-G09RevB.01 12-Aug-2010

 ---------------------------------------
 # opt rb3lyp/6-31g(d) geom=connectivity
 ---------------------------------------

 -------------------
 Title Card Required
 -------------------
 Symbolic Z-matrix:
 Charge =  0 Multiplicity = 1

 SCF Done:  E(RB3LYP) =  -1387.30055534     A.U. after   16 cycles
 SCF Done:  E(RB3LYP) =  -1387.31325714     A.U. after   16 cycles
 SCF Done:  E(RB3LYP) =  -1387.31566275     A.U. after   13 cycles
 SCF Done:  E(RB3LYP) =  -1387.31319858     A.U. after   13 cycles
 SCF Done:  E(RB3LYP) =  -1387.31593930     A.U. after   13 cycles
 SCF Done:  E(RB3LYP) =  -1387.31624936     A.U. after   12 cycles
 SCF Done:  E(RB3LYP) =  -1387.31599719     A.U. after   12 cycles
 SCF Done:  E(RB3LYP) =  -1387.31638234     A.U. after   12 cycles
 SCF Done:  E(RB3LYP) =  -1387.31648417     A.U. after   12 cycles
 SCF Done:  E(RB3LYP) =  -1387.31650278     A.U. after   10 cycles
 SCF Done:  E(RB3LYP) =  -1387.31651170     A.U. after   11 cycles
 SCF Done:  E(RB3LYP) =  -1387.31651717     A.U. after    9 cycles
 SCF Done:  E(RB3LYP) =  -1387.31651795     A.U. after   10 cycles
 SCF Done:  E(RB3LYP) =  -1387.31651842     A.U. after    7 cycles
 SCF Done:  E(RB3LYP) =  -1387.31651851     A.U. after    7 cycles
 SCF Done:  E(RB3LYP) =  -1387.31651841     A.U. after    7 cycles
 Optimization completed.
    -- Stationary point found.

                         Standard orientation:
 ---------------------------------------------------------------------
 Center     Atomic      Atomic             Coordinates (Angstroms)
 Number     Number       Type             X           Y           Z
 ---------------------------------------------------------------------
      1          6           0       -1.569943    1.162819    3.002615
      2          6           0       -1.353992    2.206314    2.193635
      3          6           0       -1.389696    2.055424    0.687297
      4          6           0       -1.387456    0.590634    0.149930
      5          6           0       -1.234042   -0.575754    1.159035
      6          6           0       -1.871376   -0.231482    2.527868
      7          6           0       -0.291965    0.581923   -0.950644
      8          6           0        1.084875    0.257494   -0.411889
      9          6           0        1.340205   -0.559475    0.632725
     10          6           0        0.209277   -1.086254    1.411486
     11          6           0        2.735010   -0.814001    1.183680
     12          8           0        3.029572   -0.330900    2.260217
     13          6           0        3.763937   -1.643723    0.400412
     14          6           0        3.169237   -2.664682   -0.585004
     15          6           0        4.769905   -0.689492   -0.281571
     16          8           0        0.373515   -1.945427    2.270490
     17          6           0       -0.041502    2.043045   -1.386158
     18          6           0        1.404893    1.997235   -1.934159
     19          8           0        2.026480    0.938705   -1.090552
     20          6           0       -0.240841    2.797793   -0.055710
     21          8           0       -0.571600   -0.338190   -1.989465
     22          6           0       -2.039967   -1.701629    0.461581
     23          6           0       -3.202089   -0.932643   -0.183718
     24          8           0       -2.654683    0.356985   -0.515948
     25          6           0       -3.833327   -1.593845   -1.390853
     26          6           0       -4.309747   -3.008649   -1.171105
     27          6           0       -4.002074   -0.949953   -2.550589
     28          6           0        1.475850    1.538195   -3.392496
     29          6           0        2.241910    3.255624   -1.720722
     30          1           0       -0.753972    2.368644   -2.150555
     31          1           0       -2.338645    2.478172    0.327230
     32          6           0       -1.134469    3.598394    2.732392
     33          1           0       -1.568820    1.321310    4.080086
     34          1           0       -2.962858   -0.360480    2.468092
     35          1           0       -1.517372   -0.974011    3.249099
     36          1           0        4.313665   -2.184398    1.182879
     37          1           0        2.459930   -2.161661   -1.254567
     38          1           0        3.981659   -3.032683   -1.226023
     39          1           0        5.599618   -1.266693   -0.705180
     40          1           0        5.179976    0.019212    0.444954
     41          1           0        4.296868   -0.121895   -1.087831
     42          1           0       -0.464257    3.858465   -0.202024
     43          1           0        0.672620    2.741253    0.546269
     44          1           0       -1.540207   -0.301293   -2.114555
     45          1           0       -2.367217   -2.462441    1.174733
     46          1           0       -1.433866   -2.184212   -0.311495
     47          1           0       -3.997754   -0.776784    0.563440
     48          1           0       -3.476801   -3.685934   -0.943617
     49          1           0       -5.003238   -3.064778   -0.320789
     50          1           0       -4.827917   -3.392102   -2.054510
     51          1           0       -3.704238    0.085788   -2.678801
     52          1           0       -4.470228   -1.438062   -3.401171
     53          1           0        0.891450    0.629104   -3.544410
     54          1           0        2.517059    1.347605   -3.672909
     55          1           0        1.084335    2.322933   -4.050150
     56          1           0        1.814067    4.088368   -2.290000
     57          1           0        3.264164    3.091116   -2.076176
     58          1           0        2.290722    3.542489   -0.667908
     59          1           0       -1.200523    3.612840    3.824497
     60          1           0       -0.152257    3.999456    2.451640
     61          1           0       -1.884764    4.299131    2.338588
     62          6           0        2.491389   -3.857022    0.102134
     63          1           0        1.702975   -3.537235    0.791442
     64          1           0        3.219767   -4.433479    0.685946
     65          1           0        2.045773   -4.534868   -0.635192
 ---------------------------------------------------------------------

 The electronic state is 1-A.
 Alpha  occ. eigenvalues --  -19.19663 -19.16632 -19.15812 -19.12701 -19.12622
 Alpha  occ. eigenvalues --  -10.27111 -10.27003 -10.26810 -10.26690 -10.25812
 Alpha  occ. eigenvalues --  -10.25718 -10.25260 -10.21259 -10.20906 -10.20668
 Alpha  occ. eigenvalues --  -10.20253 -10.19849 -10.19696 -10.19373 -10.19262
 Alpha  occ. eigenvalues --  -10.19218 -10.19152 -10.18745 -10.18430 -10.18341
 Alpha  occ. eigenvalues --  -10.18329 -10.18319 -10.17966 -10.17227 -10.16860
 Alpha  occ. eigenvalues --  -10.15961  -1.09047  -1.05996  -1.03248  -1.02570
 Alpha  occ. eigenvalues --   -1.02219  -0.86697  -0.83695  -0.82462  -0.81372
 Alpha  occ. eigenvalues --   -0.80218  -0.79506  -0.76613  -0.74236  -0.73137
 Alpha  occ. eigenvalues --   -0.71806  -0.71518  -0.70088  -0.69582  -0.67926
 Alpha  occ. eigenvalues --   -0.65003  -0.63926  -0.63077  -0.61552  -0.60600
 Alpha  occ. eigenvalues --   -0.59329  -0.59099  -0.56913  -0.55561  -0.53875
 Alpha  occ. eigenvalues --   -0.53049  -0.52357  -0.50820  -0.50341  -0.49195
 Alpha  occ. eigenvalues --   -0.47784  -0.47055  -0.46512  -0.46391  -0.45842
 Alpha  occ. eigenvalues --   -0.45078  -0.44511  -0.43889  -0.43574  -0.43218
 Alpha  occ. eigenvalues --   -0.42680  -0.42107  -0.41875  -0.41681  -0.41255
 Alpha  occ. eigenvalues --   -0.40942  -0.40725  -0.40578  -0.40217  -0.40099
 Alpha  occ. eigenvalues --   -0.39308  -0.39007  -0.38682  -0.38407  -0.38012
 Alpha  occ. eigenvalues --   -0.37620  -0.37501  -0.37242  -0.37134  -0.36586
 Alpha  occ. eigenvalues --   -0.36229  -0.35483  -0.35060  -0.34586  -0.34375
 Alpha  occ. eigenvalues --   -0.33990  -0.33615  -0.32977  -0.32708  -0.31877
 Alpha  occ. eigenvalues --   -0.31455  -0.31257  -0.31010  -0.28301  -0.26522
 Alpha  occ. eigenvalues --   -0.25958  -0.24762  -0.24054  -0.23317  -0.22636
 Alpha virt. eigenvalues --   -0.04514  -0.01356   0.00916   0.02372   0.04963
 Alpha virt. eigenvalues --    0.07289   0.08260   0.08636   0.09072   0.09943
 Alpha virt. eigenvalues --    0.10590   0.10844   0.11190   0.12009   0.12479

 Mulliken atomic charges:
              1
     1  C   -0.184025
     2  C    0.194233
     3  C   -0.189508
     4  C    0.321187
     5  C   -0.051211
     6  C   -0.334146
     7  C    0.200197
     8  C    0.403258
     9  C   -0.101618
    10  C    0.442041
    11  C    0.419014
    12  O   -0.438973
    13  C   -0.144473
    14  C   -0.265022
    15  C   -0.465312
    16  O   -0.507041
    17  C   -0.165913
    18  C    0.307355
    19  O   -0.541367
    20  C   -0.323611
    21  O   -0.662745
    22  C   -0.325677
    23  C    0.105973
    24  O   -0.590318
    25  C    0.187275
    26  C   -0.519600
    27  C   -0.408497
    28  C   -0.469120
    29  C   -0.459659
    30  H    0.143381
    31  H    0.165731
    32  C   -0.519614
    33  H    0.124350
    34  H    0.145031
    35  H    0.185877
    36  H    0.154504
    37  H    0.144614
    38  H    0.128993
    39  H    0.142907
    40  H    0.159593
    41  H    0.161847
    42  H    0.150954
    43  H    0.170309
    44  H    0.416450
    45  H    0.166643
    46  H    0.172443
    47  H    0.145713
    48  H    0.170240
    49  H    0.159215
    50  H    0.161608
    51  H    0.152828
    52  H    0.139381
    53  H    0.193241
    54  H    0.155528
    55  H    0.143596
    56  H    0.150967
    57  H    0.162997
    58  H    0.164507
    59  H    0.158991
    60  H    0.158488
    61  H    0.149166
    62  C   -0.465370
    63  H    0.175353
    64  H    0.141032
    65  H    0.135811
 Sum of Mulliken atomic charges =   0.00000

 Dipole moment (field-independent basis, Debye):
    X=             -3.3038    Y=              2.6483    Z=             -3.9059  Tot=              5.7606
 Quadrupole moment (field-independent basis, Debye-Ang):
   XX=           -181.4497   YY=           -174.5712   ZZ=           -190.7072
   XY=              6.7493   XZ=            -10.2352   YZ=              1.3267

 Normal termination of Gaussian 09 at Wed Mar 24 18:00:15 2021.
