 Gaussian 09, Revision B.01,
 Gaussian 09:  EM64L-G09RevB.01 12-Aug-2010

 ---------------------------------------
 # opt rb3lyp/6-31g(d) geom=connectivity
 ---------------------------------------

 -------------------
 Title Card Required
 -------------------
 Symbolic Z-matrix:
 Charge =  0 Multiplicity = 1

 SCF Done:  E(RB3LYP) =  -1387.30192385     A.U. after   16 cycles
 SCF Done:  E(RB3LYP) =  -1387.31480216     A.U. after   13 cycles
 SCF Done:  E(RB3LYP) =  -1387.31702515     A.U. after   13 cycles
 SCF Done:  E(RB3LYP) =  -1387.31740107     A.U. after   13 cycles
 SCF Done:  E(RB3LYP) =  -1387.31726191     A.U. after   12 cycles
 SCF Done:  E(RB3LYP) =  -1387.31764186     A.U. after   12 cycles
 SCF Done:  E(RB3LYP) =  -1387.31774150     A.U. after   11 cycles
 SCF Done:  E(RB3LYP) =  -1387.31773232     A.U. after   11 cycles
 SCF Done:  E(RB3LYP) =  -1387.31777149     A.U. after   11 cycles
 SCF Done:  E(RB3LYP) =  -1387.31777847     A.U. after    8 cycles
 SCF Done:  E(RB3LYP) =  -1387.31795651     A.U. after   13 cycles
 SCF Done:  E(RB3LYP) =  -1387.31798217     A.U. after   13 cycles
 SCF Done:  E(RB3LYP) =  -1387.31809943     A.U. after   12 cycles
 SCF Done:  E(RB3LYP) =  -1387.31808575     A.U. after   12 cycles
 SCF Done:  E(RB3LYP) =  -1387.31811443     A.U. after   11 cycles
 SCF Done:  E(RB3LYP) =  -1387.31811738     A.U. after   10 cycles
 SCF Done:  E(RB3LYP) =  -1387.31811806     A.U. after   10 cycles
 SCF Done:  E(RB3LYP) =  -1387.31811839     A.U. after    7 cycles
 SCF Done:  E(RB3LYP) =  -1387.31811849     A.U. after    6 cycles
 SCF Done:  E(RB3LYP) =  -1387.31811854     A.U. after    6 cycles
 Optimization completed.
    -- Stationary point found.

                         Standard orientation:
 ---------------------------------------------------------------------
 Center     Atomic      Atomic             Coordinates (Angstroms)
 Number     Number       Type             X           Y           Z
 ---------------------------------------------------------------------
      1          6           0        2.314185    0.958963   -2.728275
      2          6           0        2.811457    1.737375   -1.759917
      3          6           0        2.244110    1.659135   -0.361877
      4          6           0        1.653889    0.275525    0.060606
      5          6           0        1.297501   -0.717435   -1.087994
      6          6           0        1.208893   -0.033712   -2.488660
      7          6           0        0.441616    0.646188    0.990533
      8          6           0       -0.906875    0.493520    0.311530
      9          6           0       -1.214919   -0.535144   -0.512492
     10          6           0       -0.086299   -1.407554   -0.918117
     11          6           0       -2.560578   -0.784540   -1.137460
     12          8           0       -2.627154   -1.062606   -2.323163
     13          6           0       -3.798673   -0.728969   -0.241414
     14          6           0       -5.087701   -0.725056   -1.079310
     15          6           0       -3.729596   -1.903347    0.761461
     16          8           0       -0.244705   -2.571110   -1.251227
     17          6           0        0.466281    2.174118    1.221602
     18          6           0       -1.019797    2.521084    1.461909
     19          8           0       -1.732204    1.496084    0.652698
     20          6           0        1.120276    2.689105   -0.073986
     21          8           0        0.420111   -0.140070    2.161813
     22          6           0        2.451938   -1.737640   -1.059963
     23          6           0        3.045748   -1.684251    0.350438
     24          8           0        2.626479   -0.389609    0.886900
     25          6           0        2.696838   -2.769053    1.357687
     26          6           0        3.495247   -2.692439    2.639385
     27          6           0        1.780572   -3.719245    1.150987
     28          6           0       -1.433788    2.322527    2.921936
     29          6           0       -1.486092    3.873715    0.932741
     30          1           0        1.076822    2.425784    2.094093
     31          1           0        3.048422    1.846651    0.361732
     32          6           0        3.908869    2.741448   -1.998077
     33          1           0        2.703551    1.041768   -3.742035
     34          1           0        0.229222    0.451331   -2.602687
     35          1           0        1.228370   -0.825300   -3.245972
     36          1           0       -3.739346    0.203645    0.335734
     37          1           0       -4.989980    0.032841   -1.865816
     38          1           0       -5.175299   -1.684068   -1.604210
     39          1           0       -3.782777   -2.863926    0.235840
     40          1           0       -4.561782   -1.855643    1.471001
     41          1           0       -2.798099   -1.883363    1.336152
     42          1           0        0.400468    2.686933   -0.901256
     43          1           0        1.506000    3.709321    0.015663
     44          1           0        1.322391   -0.519340    2.211833
     45          1           0        2.092368   -2.725130   -1.351092
     46          1           0        3.219098   -1.431502   -1.776903
     47          1           0        4.141029   -1.626688    0.296699
     48          1           0        3.398844   -1.708653    3.116514
     49          1           0        3.176898   -3.453455    3.357705
     50          1           0        4.567211   -2.835424    2.442208
     51          1           0        1.192111   -3.787940    0.242710
     52          1           0        1.576053   -4.464363    1.916500
     53          1           0       -1.102439    1.349260    3.291252
     54          1           0       -0.987091    3.103665    3.547670
     55          1           0       -2.522662    2.390071    3.015377
     56          1           0       -0.981197    4.681042    1.474512
     57          1           0       -1.277369    3.987555   -0.134013
     58          1           0       -2.564594    3.985434    1.083635
     59          1           0        4.231684    2.744261   -3.044015
     60          1           0        3.584988    3.760155   -1.743193
     61          1           0        4.784913    2.526987   -1.370261
     62          6           0       -6.357140   -0.452414   -0.264906
     63          1           0       -7.234632   -0.404662   -0.919894
     64          1           0       -6.548020   -1.234369    0.478764
     65          1           0       -6.291133    0.504185    0.269393
 ---------------------------------------------------------------------

 The electronic state is 1-A.
 Alpha  occ. eigenvalues --  -19.19825 -19.16684 -19.14906 -19.13026 -19.12453
 Alpha  occ. eigenvalues --  -10.27020 -10.26890 -10.26838 -10.26280 -10.26061
 Alpha  occ. eigenvalues --  -10.25727 -10.24662 -10.21276 -10.20493 -10.20296
 Alpha  occ. eigenvalues --  -10.20198 -10.19730 -10.19560 -10.19504 -10.19323
 Alpha  occ. eigenvalues --  -10.18951 -10.18822 -10.18612 -10.18527 -10.18435
 Alpha  occ. eigenvalues --  -10.18385 -10.18161 -10.17466 -10.16924 -10.16716
 Alpha  occ. eigenvalues --  -10.16565  -1.09132  -1.05722  -1.03343  -1.02072
 Alpha  occ. eigenvalues --   -1.01918  -0.86857  -0.83828  -0.81948  -0.81129
 Alpha  occ. eigenvalues --   -0.79872  -0.79395  -0.76813  -0.73986  -0.73025
 Alpha  occ. eigenvalues --   -0.72247  -0.71355  -0.70210  -0.68676  -0.68008
 Alpha  occ. eigenvalues --   -0.64911  -0.64238  -0.63535  -0.62091  -0.60693
 Alpha  occ. eigenvalues --   -0.59093  -0.58248  -0.56514  -0.54414  -0.53202
 Alpha  occ. eigenvalues --   -0.52855  -0.51737  -0.50717  -0.49917  -0.48962
 Alpha  occ. eigenvalues --   -0.47734  -0.47518  -0.46893  -0.46328  -0.46014
 Alpha  occ. eigenvalues --   -0.45070  -0.44592  -0.44186  -0.43944  -0.42848
 Alpha  occ. eigenvalues --   -0.42714  -0.42224  -0.42116  -0.41589  -0.41141
 Alpha  occ. eigenvalues --   -0.40841  -0.40510  -0.40189  -0.40131  -0.39319
 Alpha  occ. eigenvalues --   -0.39191  -0.38894  -0.38600  -0.38401  -0.37965
 Alpha  occ. eigenvalues --   -0.37713  -0.37501  -0.37308  -0.36677  -0.36073
 Alpha  occ. eigenvalues --   -0.36022  -0.35348  -0.35138  -0.34584  -0.34312
 Alpha  occ. eigenvalues --   -0.33517  -0.33354  -0.33194  -0.32736  -0.32169
 Alpha  occ. eigenvalues --   -0.31574  -0.31296  -0.30931  -0.27394  -0.27203
 Alpha  occ. eigenvalues --   -0.25288  -0.24527  -0.24274  -0.23370  -0.22610
 Alpha virt. eigenvalues --   -0.04286  -0.01561   0.00978   0.01525   0.05481
 Alpha virt. eigenvalues --    0.07208   0.08479   0.08723   0.09494   0.10314
 Alpha virt. eigenvalues --    0.10443   0.10761   0.11188   0.11717   0.12716

 Mulliken atomic charges:
              1
     1  C   -0.197396
     2  C    0.204541
     3  C   -0.200464
     4  C    0.323089
     5  C   -0.051198
     6  C   -0.324768
     7  C    0.202982
     8  C    0.398126
     9  C   -0.093624
    10  C    0.419643
    11  C    0.424627
    12  O   -0.455748
    13  C   -0.175323
    14  C   -0.240473
    15  C   -0.461185
    16  O   -0.482476
    17  C   -0.156577
    18  C    0.299667
    19  O   -0.535554
    20  C   -0.308065
    21  O   -0.671305
    22  C   -0.333432
    23  C    0.094550
    24  O   -0.590075
    25  C    0.182080
    26  C   -0.513792
    27  C   -0.405545
    28  C   -0.466686
    29  C   -0.460998
    30  H    0.145977
    31  H    0.149335
    32  C   -0.520918
    33  H    0.125457
    34  H    0.172600
    35  H    0.168312
    36  H    0.154775
    37  H    0.140937
    38  H    0.146585
    39  H    0.159000
    40  H    0.150125
    41  H    0.163389
    42  H    0.160145
    43  H    0.150668
    44  H    0.429646
    45  H    0.189966
    46  H    0.151209
    47  H    0.134865
    48  H    0.160046
    49  H    0.157050
    50  H    0.153929
    51  H    0.185619
    52  H    0.136423
    53  H    0.194947
    54  H    0.145125
    55  H    0.155256
    56  H    0.151993
    57  H    0.161797
    58  H    0.162503
    59  H    0.157635
    60  H    0.153980
    61  H    0.156549
    62  C   -0.452223
    63  H    0.143223
    64  H    0.143476
    65  H    0.135979
 Sum of Mulliken atomic charges =   0.00000

 Dipole moment (field-independent basis, Debye):
    X=              3.3919    Y=              4.5804    Z=              2.5534  Tot=              6.2454
 Quadrupole moment (field-independent basis, Debye-Ang):
   XX=           -178.8020   YY=           -178.9384   ZZ=           -188.1792
   XY=             -3.8919   XZ=             -8.4360   YZ=             -3.9318

 Normal termination of Gaussian 09 at Wed Mar 24 17:07:18 2021.
