 Gaussian 09, Revision B.01,
 Gaussian 09:  EM64L-G09RevB.01 12-Aug-2010

 ---------------------------------------
 # opt rb3lyp/6-31g(d) geom=connectivity
 ---------------------------------------

 -------------------
 Title Card Required
 -------------------
 Symbolic Z-matrix:
 Charge =  0 Multiplicity = 1

 SCF Done:  E(RB3LYP) =  -1387.30057639     A.U. after   16 cycles
 SCF Done:  E(RB3LYP) =  -1387.31377577     A.U. after   13 cycles
 SCF Done:  E(RB3LYP) =  -1387.31654249     A.U. after   13 cycles
 SCF Done:  E(RB3LYP) =  -1387.31741779     A.U. after   13 cycles
 SCF Done:  E(RB3LYP) =  -1387.31779739     A.U. after   14 cycles
 SCF Done:  E(RB3LYP) =  -1387.31771179     A.U. after   13 cycles
 SCF Done:  E(RB3LYP) =  -1387.31756781     A.U. after   14 cycles
 SCF Done:  E(RB3LYP) =  -1387.31804963     A.U. after   15 cycles
 SCF Done:  E(RB3LYP) =  -1387.31903348     A.U. after   12 cycles
 SCF Done:  E(RB3LYP) =  -1387.31914293     A.U. after   13 cycles
 SCF Done:  E(RB3LYP) =  -1387.31926137     A.U. after   12 cycles
 SCF Done:  E(RB3LYP) =  -1387.31924232     A.U. after   13 cycles
 SCF Done:  E(RB3LYP) =  -1387.31935813     A.U. after   13 cycles
 SCF Done:  E(RB3LYP) =  -1387.31937077     A.U. after   10 cycles
 SCF Done:  E(RB3LYP) =  -1387.31937868     A.U. after   11 cycles
 SCF Done:  E(RB3LYP) =  -1387.31938023     A.U. after   10 cycles
 SCF Done:  E(RB3LYP) =  -1387.31938077     A.U. after    8 cycles
 SCF Done:  E(RB3LYP) =  -1387.31938086     A.U. after    7 cycles
 SCF Done:  E(RB3LYP) =  -1387.31938095     A.U. after    6 cycles
 Optimization completed.
    -- Stationary point found.

                         Standard orientation:
 ---------------------------------------------------------------------
 Center     Atomic      Atomic             Coordinates (Angstroms)
 Number     Number       Type             X           Y           Z
 ---------------------------------------------------------------------
      1          6           0        2.508984    0.314761   -2.694079
      2          6           0        3.213324    0.902986   -1.719900
      3          6           0        2.615595    1.045596   -0.339460
      4          6           0        1.594012   -0.060490    0.079319
      5          6           0        0.959818   -0.903848   -1.066330
      6          6           0        1.128039   -0.241528   -2.470260
      7          6           0        0.542493    0.701706    0.954404
      8          6           0       -0.759939    0.976702    0.216972
      9          6           0       -1.390516    0.041065   -0.552507
     10          6           0       -0.579580   -1.132812   -0.921958
     11          6           0       -2.797032    0.267171   -1.045242
     12          8           0       -3.170557    1.403524   -1.295312
     13          6           0       -3.740702   -0.928615   -1.165201
     14          6           0       -3.978057   -1.563774    0.232642
     15          6           0       -5.038158   -0.533487   -1.877059
     16          8           0       -1.054259   -2.201377   -1.297207
     17          6           0        1.049300    2.143368    1.173523
     18          6           0       -0.256737    2.950008    1.344376
     19          8           0       -1.224577    2.185732    0.510738
     20          6           0        1.881888    2.391856   -0.098799
     21          8           0        0.221583   -0.010525    2.128803
     22          6           0        1.736615   -2.233995   -1.005048
     23          6           0        2.274526   -2.356306    0.423472
     24          8           0        2.270250   -0.990481    0.944523
     25          6           0        1.571195   -3.263490    1.421231
     26          6           0        2.304985   -3.410419    2.735036
     27          6           0        0.418921   -3.896047    1.181299
     28          6           0       -0.775165    2.924391    2.783980
     29          6           0       -0.251338    4.366967    0.780879
     30          1           0        1.674184    2.204707    2.069567
     31          1           0        3.417826    0.973945    0.406704
     32          6           0        4.589631    1.476082   -1.934846
     33          1           0        2.927668    0.238595   -3.696452
     34          1           0        0.886634   -0.996123   -3.227439
     35          1           0        0.379339    0.553558   -2.592891
     36          1           0       -3.216242   -1.690964   -1.751746
     37          1           0       -4.608936   -2.451013    0.088472
     38          1           0       -3.019404   -1.930323    0.616644
     39          1           0       -5.562008    0.269129   -1.350958
     40          1           0       -4.834423   -0.172312   -2.890248
     41          1           0       -5.706392   -1.399632   -1.949327
     42          1           0        1.231132    2.612211   -0.953426
     43          1           0        2.577886    3.230439    0.000582
     44          1           0        0.945026   -0.665573    2.216622
     45          1           0        2.583260   -2.183591   -1.695421
     46          1           0        1.098603   -3.063031   -1.310866
     47          1           0        3.332547   -2.650300    0.403812
     48          1           0        1.743956   -4.028199    3.442070
     49          1           0        3.290330   -3.873419    2.583071
     50          1           0        2.492093   -2.435816    3.203671
     51          1           0       -0.127158   -3.801481    0.249294
     52          1           0       -0.030401   -4.530619    1.941808
     53          1           0       -1.791785    3.328517    2.821317
     54          1           0       -0.135094    3.543150    3.423342
     55          1           0       -0.780041    1.905439    3.177808
     56          1           0       -1.244688    4.814937    0.881916
     57          1           0        0.462723    4.985641    1.335572
     58          1           0        0.021212    4.382718   -0.277160
     59          1           0        4.922946    1.345888   -2.969323
     60          1           0        4.619108    2.550141   -1.704540
     61          1           0        5.325809    0.995853   -1.275371
     62          6           0       -4.627236   -0.637260    1.267992
     63          1           0       -5.622334   -0.305510    0.952001
     64          1           0       -4.740782   -1.154695    2.227590
     65          1           0       -4.021304    0.259223    1.444320
 ---------------------------------------------------------------------

 The electronic state is 1-A.
 Alpha  occ. eigenvalues --  -19.19814 -19.16828 -19.14957 -19.13307 -19.11696
 Alpha  occ. eigenvalues --  -10.27421 -10.27306 -10.26568 -10.26127 -10.25803
 Alpha  occ. eigenvalues --  -10.25739 -10.24845 -10.21575 -10.20423 -10.20406
 Alpha  occ. eigenvalues --  -10.20204 -10.19940 -10.19911 -10.19768 -10.19089
 Alpha  occ. eigenvalues --  -10.18931 -10.18891 -10.18822 -10.18726 -10.18511
 Alpha  occ. eigenvalues --  -10.18159 -10.17676 -10.17187 -10.16960 -10.15930
 Alpha  occ. eigenvalues --  -10.15459  -1.09437  -1.05888  -1.03295  -1.02037
 Alpha  occ. eigenvalues --   -1.01649  -0.86992  -0.83748  -0.81991  -0.81224
 Alpha  occ. eigenvalues --   -0.79942  -0.78893  -0.76691  -0.74134  -0.73061
 Alpha  occ. eigenvalues --   -0.71985  -0.70803  -0.70027  -0.68808  -0.68111
 Alpha  occ. eigenvalues --   -0.65378  -0.63900  -0.63609  -0.61570  -0.60625
 Alpha  occ. eigenvalues --   -0.59094  -0.58369  -0.56602  -0.54112  -0.53403
 Alpha  occ. eigenvalues --   -0.52578  -0.51782  -0.50849  -0.49886  -0.49106
 Alpha  occ. eigenvalues --   -0.47510  -0.47318  -0.46781  -0.46462  -0.45908
 Alpha  occ. eigenvalues --   -0.44998  -0.44518  -0.44139  -0.43691  -0.42943
 Alpha  occ. eigenvalues --   -0.42776  -0.42307  -0.42172  -0.41675  -0.41227
 Alpha  occ. eigenvalues --   -0.40813  -0.40344  -0.40184  -0.39907  -0.39596
 Alpha  occ. eigenvalues --   -0.39058  -0.38797  -0.38368  -0.38101  -0.37470
 Alpha  occ. eigenvalues --   -0.37217  -0.36953  -0.36712  -0.36642  -0.36237
 Alpha  occ. eigenvalues --   -0.35770  -0.35172  -0.35111  -0.34617  -0.34259
 Alpha  occ. eigenvalues --   -0.33645  -0.33438  -0.33035  -0.32789  -0.32373
 Alpha  occ. eigenvalues --   -0.31373  -0.30883  -0.30453  -0.27493  -0.27226
 Alpha  occ. eigenvalues --   -0.25473  -0.24571  -0.24287  -0.23421  -0.22139
 Alpha virt. eigenvalues --   -0.04867  -0.00753   0.00796   0.01300   0.05677
 Alpha virt. eigenvalues --    0.07045   0.08708   0.08816   0.09300   0.10309
 Alpha virt. eigenvalues --    0.10639   0.10918   0.11164   0.11628   0.12657

 Mulliken atomic charges:
              1
     1  C   -0.198280
     2  C    0.205541
     3  C   -0.200957
     4  C    0.325552
     5  C   -0.045433
     6  C   -0.325267
     7  C    0.197263
     8  C    0.406294
     9  C   -0.078821
    10  C    0.404105
    11  C    0.405396
    12  O   -0.464698
    13  C   -0.164664
    14  C   -0.265943
    15  C   -0.441696
    16  O   -0.508841
    17  C   -0.153703
    18  C    0.292067
    19  O   -0.494743
    20  C   -0.310365
    21  O   -0.669390
    22  C   -0.332712
    23  C    0.094767
    24  O   -0.589581
    25  C    0.183226
    26  C   -0.513759
    27  C   -0.406297
    28  C   -0.468472
    29  C   -0.459150
    30  H    0.146151
    31  H    0.149826
    32  C   -0.521070
    33  H    0.125395
    34  H    0.163653
    35  H    0.167474
    36  H    0.171157
    37  H    0.133465
    38  H    0.153468
    39  H    0.158563
    40  H    0.145422
    41  H    0.130133
    42  H    0.162993
    43  H    0.151543
    44  H    0.429298
    45  H    0.151220
    46  H    0.188871
    47  H    0.135333
    48  H    0.157460
    49  H    0.154081
    50  H    0.161223
    51  H    0.182948
    52  H    0.136985
    53  H    0.161677
    54  H    0.144402
    55  H    0.194051
    56  H    0.169739
    57  H    0.149030
    58  H    0.163410
    59  H    0.157634
    60  H    0.155563
    61  H    0.157008
    62  C   -0.448907
    63  H    0.146345
    64  H    0.138920
    65  H    0.154100
 Sum of Mulliken atomic charges =   0.00000

 Dipole moment (field-independent basis, Debye):
    X=              5.4540    Y=              1.1326    Z=              1.2556  Tot=              5.7101
 Quadrupole moment (field-independent basis, Debye-Ang):
   XX=           -185.9980   YY=           -178.2037   ZZ=           -181.8459
   XY=              6.0690   XZ=             -5.6565   YZ=              2.7999

 Normal termination of Gaussian 09 at Wed Mar 24 13:45:16 2021.
