 Gaussian 09, Revision B.01,
 Gaussian 09:  EM64L-G09RevB.01 12-Aug-2010

 ---------------------------------------
 # opt rb3lyp/6-31g(d) geom=connectivity
 ---------------------------------------

 -------------------
 Title Card Required
 -------------------
 Symbolic Z-matrix:
 Charge =  0 Multiplicity = 1

 SCF Done:  E(RB3LYP) =  -1387.30121783     A.U. after   16 cycles
 SCF Done:  E(RB3LYP) =  -1387.31451987     A.U. after   13 cycles
 SCF Done:  E(RB3LYP) =  -1387.31667829     A.U. after   13 cycles
 SCF Done:  E(RB3LYP) =  -1387.31669339     A.U. after   13 cycles
 SCF Done:  E(RB3LYP) =  -1387.31784782     A.U. after   12 cycles
 SCF Done:  E(RB3LYP) =  -1387.31780861     A.U. after   13 cycles
 SCF Done:  E(RB3LYP) =  -1387.31808217     A.U. after   12 cycles
 SCF Done:  E(RB3LYP) =  -1387.31809123     A.U. after   10 cycles
 SCF Done:  E(RB3LYP) =  -1387.31810586     A.U. after   11 cycles
 SCF Done:  E(RB3LYP) =  -1387.31811306     A.U. after   10 cycles
 SCF Done:  E(RB3LYP) =  -1387.31811487     A.U. after    8 cycles
 SCF Done:  E(RB3LYP) =  -1387.31811538     A.U. after    8 cycles
 SCF Done:  E(RB3LYP) =  -1387.31811544     A.U. after    8 cycles
 SCF Done:  E(RB3LYP) =  -1387.31811540     A.U. after    7 cycles
 SCF Done:  E(RB3LYP) =  -1387.31811534     A.U. after    7 cycles
 SCF Done:  E(RB3LYP) =  -1387.31811531     A.U. after    6 cycles
 SCF Done:  E(RB3LYP) =  -1387.31811528     A.U. after    7 cycles
 SCF Done:  E(RB3LYP) =  -1387.31811531     A.U. after    6 cycles
 Optimization completed.
    -- Stationary point found.

                         Standard orientation:
 ---------------------------------------------------------------------
 Center     Atomic      Atomic             Coordinates (Angstroms)
 Number     Number       Type             X           Y           Z
 ---------------------------------------------------------------------
      1          6           0        2.013265    1.203844   -2.724949
      2          6           0        2.455280    2.046631   -1.783853
      3          6           0        1.969295    1.909465   -0.359041
      4          6           0        1.588025    0.465394    0.098778
      5          6           0        1.330123   -0.577516   -1.030887
      6          6           0        1.066555    0.072459   -2.423400
      7          6           0        0.365156    0.681326    1.065267
      8          6           0       -0.968667    0.324350    0.428952
      9          6           0       -1.150139   -0.768585   -0.351362
     10          6           0        0.089565   -1.476538   -0.762793
     11          6           0       -2.455661   -1.226893   -0.929658
     12          8           0       -2.500000   -1.616024   -2.086339
     13          6           0       -3.684661   -1.276968   -0.019008
     14          6           0       -4.992306   -1.100955   -0.806326
     15          6           0       -3.642271   -2.633271    0.721931
     16          8           0        0.116785   -2.671702   -1.006987
     17          6           0        0.180836    2.200407    1.274341
     18          6           0       -1.333850    2.342083    1.543943
     19          8           0       -1.913757    1.215462    0.762860
     20          6           0        0.726683    2.782169   -0.041921
     21          8           0        0.478414   -0.069664    2.252507
     22          6           0        2.628222   -1.400489   -1.058298
     23          6           0        3.215125   -1.294473    0.355170
     24          8           0        2.674998   -0.059165    0.887121
     25          6           0        2.992727   -2.463441    1.318529
     26          6           0        2.885168   -3.848119    0.730307
     27          6           0        2.993138   -2.257993    2.640369
     28          6           0       -1.685671    2.109334    3.015304
     29          6           0       -1.996263    3.607776    1.009666
     30          1           0        0.768279    2.546751    2.129883
     31          1           0        2.770044    2.215293    0.327091
     32          6           0        3.397678    3.184228   -2.078478
     33          1           0        2.334775    1.329012   -3.757893
     34          1           0        1.151758   -0.714678   -3.181154
     35          1           0        0.025061    0.418026   -2.480647
     36          1           0       -3.598711   -0.479703    0.727560
     37          1           0       -5.030589   -1.859850   -1.596121
     38          1           0       -5.830917   -1.304228   -0.126685
     39          1           0       -4.472378   -2.699564    1.434283
     40          1           0       -2.706246   -2.760902    1.276334
     41          1           0       -3.730306   -3.462286    0.011037
     42          1           0        0.975270    3.845614    0.029201
     43          1           0       -0.007900    2.676352   -0.849513
     44          1           0        1.394398   -0.414181    2.255967
     45          1           0        3.326003   -0.947780   -1.768191
     46          1           0        2.420076   -2.421206   -1.379289
     47          1           0        4.300803   -1.140121    0.290918
     48          1           0        1.959700   -3.962738    0.154455
     49          1           0        3.718731   -4.058104    0.045839
     50          1           0        2.899817   -4.606385    1.518624
     51          1           0        3.124696   -1.269780    3.073312
     52          1           0        2.879432   -3.081153    3.340333
     53          1           0       -1.215554    1.196479    3.388064
     54          1           0       -2.771316    2.028796    3.132799
     55          1           0       -1.336918    2.953186    3.621560
     56          1           0       -1.598277    4.486103    1.529572
     57          1           0       -3.076297    3.569677    1.184163
     58          1           0       -1.829056    3.733394   -0.062956
     59          1           0        3.658357    3.226736   -3.140782
     60          1           0        2.959029    4.152647   -1.800425
     61          1           0        4.328066    3.087177   -1.501795
     62          6           0       -5.159221    0.291799   -1.423588
     63          1           0       -4.372746    0.492744   -2.158753
     64          1           0       -5.113715    1.076034   -0.657468
     65          1           0       -6.123669    0.381226   -1.936595
 ---------------------------------------------------------------------

 The electronic state is 1-A.
 Alpha  occ. eigenvalues --  -19.19891 -19.16703 -19.14697 -19.13237 -19.12320
 Alpha  occ. eigenvalues --  -10.27125 -10.26941 -10.26835 -10.26236 -10.26159
 Alpha  occ. eigenvalues --  -10.25730 -10.24902 -10.21287 -10.20458 -10.20338
 Alpha  occ. eigenvalues --  -10.20193 -10.20020 -10.19790 -10.19601 -10.19312
 Alpha  occ. eigenvalues --  -10.18990 -10.18808 -10.18669 -10.18604 -10.18407
 Alpha  occ. eigenvalues --  -10.18032 -10.17835 -10.17669 -10.16965 -10.16806
 Alpha  occ. eigenvalues --  -10.16156  -1.09178  -1.05807  -1.03413  -1.02006
 Alpha  occ. eigenvalues --   -1.01957  -0.86930  -0.83879  -0.81997  -0.81147
 Alpha  occ. eigenvalues --   -0.79930  -0.79316  -0.76844  -0.74053  -0.73081
 Alpha  occ. eigenvalues --   -0.72252  -0.71540  -0.70232  -0.68683  -0.68090
 Alpha  occ. eigenvalues --   -0.64725  -0.64015  -0.63065  -0.61881  -0.60765
 Alpha  occ. eigenvalues --   -0.59114  -0.58696  -0.56575  -0.54549  -0.53755
 Alpha  occ. eigenvalues --   -0.52818  -0.51761  -0.50693  -0.49875  -0.48971
 Alpha  occ. eigenvalues --   -0.48301  -0.47405  -0.46991  -0.46736  -0.46091
 Alpha  occ. eigenvalues --   -0.44728  -0.44342  -0.44148  -0.43202  -0.42728
 Alpha  occ. eigenvalues --   -0.42410  -0.42303  -0.42056  -0.41680  -0.40970
 Alpha  occ. eigenvalues --   -0.40787  -0.40649  -0.40388  -0.40038  -0.39927
 Alpha  occ. eigenvalues --   -0.39212  -0.39063  -0.38707  -0.38365  -0.37846
 Alpha  occ. eigenvalues --   -0.37649  -0.37482  -0.37125  -0.36516  -0.35987
 Alpha  occ. eigenvalues --   -0.35705  -0.35455  -0.35247  -0.34626  -0.34515
 Alpha  occ. eigenvalues --   -0.34006  -0.33358  -0.32909  -0.32683  -0.32471
 Alpha  occ. eigenvalues --   -0.31552  -0.31259  -0.30823  -0.27353  -0.27218
 Alpha  occ. eigenvalues --   -0.25183  -0.24537  -0.24211  -0.23355  -0.22608
 Alpha virt. eigenvalues --   -0.04324  -0.01838   0.00981   0.01455   0.05372
 Alpha virt. eigenvalues --    0.07361   0.08534   0.08690   0.09995   0.10299
 Alpha virt. eigenvalues --    0.10689   0.10875   0.11147   0.12167   0.12600

 Mulliken atomic charges:
              1
     1  C   -0.197995
     2  C    0.204363
     3  C   -0.200886
     4  C    0.315337
     5  C   -0.054779
     6  C   -0.321315
     7  C    0.207870
     8  C    0.398678
     9  C   -0.092689
    10  C    0.414702
    11  C    0.428791
    12  O   -0.467227
    13  C   -0.165223
    14  C   -0.243450
    15  C   -0.455780
    16  O   -0.476678
    17  C   -0.154760
    18  C    0.296901
    19  O   -0.532963
    20  C   -0.308524
    21  O   -0.678387
    22  C   -0.332988
    23  C    0.086669
    24  O   -0.583443
    25  C    0.200260
    26  C   -0.537774
    27  C   -0.410402
    28  C   -0.466882
    29  C   -0.461434
    30  H    0.147658
    31  H    0.150726
    32  C   -0.521009
    33  H    0.125529
    34  H    0.167253
    35  H    0.171302
    36  H    0.147432
    37  H    0.154506
    38  H    0.122356
    39  H    0.145710
    40  H    0.159795
    41  H    0.162064
    42  H    0.150976
    43  H    0.159778
    44  H    0.433755
    45  H    0.150513
    46  H    0.189082
    47  H    0.154147
    48  H    0.204499
    49  H    0.150526
    50  H    0.153588
    51  H    0.146758
    52  H    0.142056
    53  H    0.196509
    54  H    0.155213
    55  H    0.145463
    56  H    0.152178
    57  H    0.163233
    58  H    0.161856
    59  H    0.157565
    60  H    0.154149
    61  H    0.157252
    62  C   -0.452412
    63  H    0.156444
    64  H    0.134682
    65  H    0.138878
 Sum of Mulliken atomic charges =   0.00000

 Dipole moment (field-independent basis, Debye):
    X=              2.7176    Y=              4.8016    Z=              1.8254  Tot=              5.8114
 Quadrupole moment (field-independent basis, Debye-Ang):
   XX=           -179.3998   YY=           -179.3539   ZZ=           -187.3908
   XY=             -5.2853   XZ=            -10.2186   YZ=             -3.6120

 Normal termination of Gaussian 09 at Wed Mar 24 16:23:47 2021.
