 Gaussian 09, Revision B.01,
 Gaussian 09:  EM64L-G09RevB.01 12-Aug-2010

 ---------------------------------------
 # opt rb3lyp/6-31g(d) geom=connectivity
 ---------------------------------------

 -------------------
 Title Card Required
 -------------------
 Symbolic Z-matrix:
 Charge =  0 Multiplicity = 1

 SCF Done:  E(RB3LYP) =  -1387.29874819     A.U. after   16 cycles
 SCF Done:  E(RB3LYP) =  -1387.31124778     A.U. after   13 cycles
 SCF Done:  E(RB3LYP) =  -1387.31309946     A.U. after   12 cycles
 SCF Done:  E(RB3LYP) =  -1387.31210092     A.U. after   13 cycles
 SCF Done:  E(RB3LYP) =  -1387.31384951     A.U. after   12 cycles
 SCF Done:  E(RB3LYP) =  -1387.31390108     A.U. after   12 cycles
 SCF Done:  E(RB3LYP) =  -1387.31413322     A.U. after   12 cycles
 SCF Done:  E(RB3LYP) =  -1387.31424285     A.U. after   12 cycles
 SCF Done:  E(RB3LYP) =  -1387.31429114     A.U. after   12 cycles
 SCF Done:  E(RB3LYP) =  -1387.31431470     A.U. after   10 cycles
 SCF Done:  E(RB3LYP) =  -1387.31432807     A.U. after   12 cycles
 SCF Done:  E(RB3LYP) =  -1387.31433365     A.U. after   10 cycles
 SCF Done:  E(RB3LYP) =  -1387.31433386     A.U. after   10 cycles
 SCF Done:  E(RB3LYP) =  -1387.31433456     A.U. after    8 cycles
 SCF Done:  E(RB3LYP) =  -1387.31433466     A.U. after    8 cycles
 Optimization completed.
    -- Stationary point found.

                         Standard orientation:
 ---------------------------------------------------------------------
 Center     Atomic      Atomic             Coordinates (Angstroms)
 Number     Number       Type             X           Y           Z
 ---------------------------------------------------------------------
      1          6           0       -2.126610    0.167756    2.784616
      2          6           0       -2.743309    1.044961    1.983842
      3          6           0       -2.192790    1.329242    0.605901
      4          6           0       -1.391682    0.169737   -0.072628
      5          6           0       -0.857121   -0.966556    0.870115
      6          6           0       -0.879675   -0.570062    2.379538
      7          6           0       -0.291109    0.899700   -0.908712
      8          6           0        1.071814    0.853943   -0.245213
      9          6           0        1.562086   -0.231584    0.383814
     10          6           0        0.627692   -1.346516    0.618732
     11          6           0        2.935756   -0.290200    1.025943
     12          8           0        3.026991   -0.060132    2.218791
     13          6           0        4.156565   -0.703059    0.204378
     14          6           0        4.395648   -2.216947    0.461950
     15          6           0        4.049966   -0.349428   -1.284708
     16          8           0        1.001466   -2.501048    0.779359
     17          6           0       -0.567130    2.419688   -0.845302
     18          6           0        0.838836    3.043961   -1.003820
     19          8           0        1.727370    2.017716   -0.399221
     20          6           0       -1.259557    2.565854    0.523767
     21          8           0       -0.168643    0.366390   -2.212389
     22          6           0       -1.785505   -2.172039    0.564579
     23          6           0       -2.869333   -1.622928   -0.364361
     24          8           0       -2.235146   -0.498995   -1.022528
     25          6           0       -3.468074   -2.526456   -1.419605
     26          6           0       -4.382519   -1.840117   -2.405426
     27          6           0       -3.258795   -3.845689   -1.441034
     28          6           0        1.241721    3.197126   -2.472788
     29          6           0        1.088989    4.332231   -0.225497
     30          1           0       -1.232696    2.729812   -1.656460
     31          1           0       -3.031133    1.517529   -0.079136
     32          6           0       -3.971307    1.812268    2.400694
     33          1           0       -2.511430   -0.010739    3.787743
     34          1           0       -0.762963   -1.487759    2.965806
     35          1           0        0.007626    0.037449    2.611338
     36          1           0        4.998618   -0.157418    0.651727
     37          1           0        3.527723   -2.784141    0.105229
     38          1           0        4.434050   -2.365513    1.547645
     39          1           0        3.251073   -0.916736   -1.775260
     40          1           0        3.839314    0.715625   -1.424982
     41          1           0        4.988896   -0.572820   -1.800766
     42          1           0       -0.526315    2.526179    1.338085
     43          1           0       -1.808215    3.507054    0.627652
     44          1           0       -0.943853   -0.222217   -2.316239
     45          1           0       -1.197237   -2.953015    0.077913
     46          1           0       -2.215843   -2.600416    1.473493
     47          1           0       -3.698186   -1.215330    0.237869
     48          1           0       -3.845844   -1.073415   -2.975784
     49          1           0       -4.818038   -2.555548   -3.109125
     50          1           0       -5.204126   -1.326189   -1.887369
     51          1           0       -3.741870   -4.476080   -2.183348
     52          1           0       -2.615537   -4.350854   -0.727902
     53          1           0        2.302136    3.460561   -2.544082
     54          1           0        0.657661    3.997888   -2.940847
     55          1           0        1.065682    2.270802   -3.024503
     56          1           0        0.896577    4.206210    0.842864
     57          1           0        2.129572    4.648991   -0.348387
     58          1           0        0.442353    5.130997   -0.605280
     59          1           0       -4.283507    1.550318    3.416566
     60          1           0       -3.796619    2.896780    2.372003
     61          1           0       -4.813552    1.614843    1.722813
     62          6           0        5.682118   -2.758071   -0.169872
     63          1           0        6.559858   -2.187896    0.159905
     64          1           0        5.837233   -3.803751    0.119596
     65          1           0        5.652223   -2.723548   -1.264283
 ---------------------------------------------------------------------

 The electronic state is 1-A.
 Alpha  occ. eigenvalues --  -19.19311 -19.16948 -19.14851 -19.13199 -19.13059
 Alpha  occ. eigenvalues --  -10.27094 -10.26942 -10.26545 -10.26318 -10.26038
 Alpha  occ. eigenvalues --  -10.25778 -10.24812 -10.21322 -10.20402 -10.20377
 Alpha  occ. eigenvalues --  -10.20288 -10.20123 -10.19730 -10.19345 -10.19001
 Alpha  occ. eigenvalues --  -10.18998 -10.18723 -10.18645 -10.18555 -10.18524
 Alpha  occ. eigenvalues --  -10.18398 -10.18240 -10.18184 -10.17101 -10.16570
 Alpha  occ. eigenvalues --  -10.16569  -1.08673  -1.06287  -1.03407  -1.02651
 Alpha  occ. eigenvalues --   -1.02040  -0.86774  -0.83589  -0.82062  -0.81255
 Alpha  occ. eigenvalues --   -0.79971  -0.79548  -0.76652  -0.73960  -0.72890
 Alpha  occ. eigenvalues --   -0.72115  -0.71310  -0.70016  -0.69097  -0.68120
 Alpha  occ. eigenvalues --   -0.65154  -0.64008  -0.63790  -0.61872  -0.60558
 Alpha  occ. eigenvalues --   -0.58872  -0.57988  -0.56709  -0.55362  -0.53840
 Alpha  occ. eigenvalues --   -0.52728  -0.51649  -0.50972  -0.49849  -0.49308
 Alpha  occ. eigenvalues --   -0.47933  -0.46830  -0.46711  -0.45998  -0.45681
 Alpha  occ. eigenvalues --   -0.44999  -0.44870  -0.44148  -0.44026  -0.42896
 Alpha  occ. eigenvalues --   -0.42803  -0.42609  -0.42175  -0.41638  -0.41345
 Alpha  occ. eigenvalues --   -0.41185  -0.40704  -0.40266  -0.39714  -0.39553
 Alpha  occ. eigenvalues --   -0.39069  -0.38826  -0.38509  -0.38249  -0.38061
 Alpha  occ. eigenvalues --   -0.37557  -0.37418  -0.37258  -0.36948  -0.36266
 Alpha  occ. eigenvalues --   -0.35684  -0.35501  -0.35203  -0.34728  -0.34260
 Alpha  occ. eigenvalues --   -0.33937  -0.33533  -0.33034  -0.32763  -0.32331
 Alpha  occ. eigenvalues --   -0.31564  -0.31142  -0.30683  -0.27996  -0.27216
 Alpha  occ. eigenvalues --   -0.25827  -0.24525  -0.24201  -0.23386  -0.22630
 Alpha virt. eigenvalues --   -0.03716  -0.01505   0.00974   0.01280   0.03966
 Alpha virt. eigenvalues --    0.06993   0.08204   0.09021   0.09203   0.10170
 Alpha virt. eigenvalues --    0.10776   0.10863   0.11609   0.12098   0.12340

 Mulliken atomic charges:
              1
     1  C   -0.193179
     2  C    0.197821
     3  C   -0.196461
     4  C    0.314833
     5  C   -0.027589
     6  C   -0.333844
     7  C    0.199530
     8  C    0.420522
     9  C   -0.108544
    10  C    0.404455
    11  C    0.409026
    12  O   -0.445267
    13  C   -0.140310
    14  C   -0.264582
    15  C   -0.476236
    16  O   -0.493852
    17  C   -0.155491
    18  C    0.298527
    19  O   -0.538305
    20  C   -0.309520
    21  O   -0.671192
    22  C   -0.328980
    23  C    0.101780
    24  O   -0.585315
    25  C    0.189097
    26  C   -0.506372
    27  C   -0.394835
    28  C   -0.466843
    29  C   -0.460188
    30  H    0.146171
    31  H    0.145654
    32  C   -0.521202
    33  H    0.125357
    34  H    0.164030
    35  H    0.181310
    36  H    0.145388
    37  H    0.165595
    38  H    0.151707
    39  H    0.159285
    40  H    0.157575
    41  H    0.147366
    42  H    0.165786
    43  H    0.150277
    44  H    0.420853
    45  H    0.182097
    46  H    0.151066
    47  H    0.136715
    48  H    0.168899
    49  H    0.153744
    50  H    0.151493
    51  H    0.139019
    52  H    0.152508
    53  H    0.155567
    54  H    0.143764
    55  H    0.194798
    56  H    0.163336
    57  H    0.163051
    58  H    0.149745
    59  H    0.158332
    60  H    0.155578
    61  H    0.153546
    62  C   -0.449477
    63  H    0.140315
    64  H    0.146166
    65  H    0.145902
 Sum of Mulliken atomic charges =   0.00000

 Dipole moment (field-independent basis, Debye):
    X=             -4.2639    Y=              3.1595    Z=             -1.5498  Tot=              5.5286
 Quadrupole moment (field-independent basis, Debye-Ang):
   XX=           -179.1520   YY=           -176.1333   ZZ=           -189.0038
   XY=              1.6569   XZ=             -7.8724   YZ=             -0.0949

 Normal termination of Gaussian 09 at Wed Mar 24 18:37:57 2021.
