 Gaussian 09, Revision B.01,
 Gaussian 09:  EM64L-G09RevB.01 12-Aug-2010

 ---------------------------------------
 # opt rb3lyp/6-31g(d) geom=connectivity
 ---------------------------------------

 -------------------
 Title Card Required
 -------------------
 Symbolic Z-matrix:
 Charge =  0 Multiplicity = 1

 SCF Done:  E(RB3LYP) =  -1387.29991271     A.U. after   16 cycles
 SCF Done:  E(RB3LYP) =  -1387.31337523     A.U. after   13 cycles
 SCF Done:  E(RB3LYP) =  -1387.31498143     A.U. after   13 cycles
 SCF Done:  E(RB3LYP) =  -1387.31292938     A.U. after   13 cycles
 SCF Done:  E(RB3LYP) =  -1387.31554830     A.U. after   12 cycles
 SCF Done:  E(RB3LYP) =  -1387.31581459     A.U. after   12 cycles
 SCF Done:  E(RB3LYP) =  -1387.31584533     A.U. after   12 cycles
 SCF Done:  E(RB3LYP) =  -1387.31594752     A.U. after   11 cycles
 SCF Done:  E(RB3LYP) =  -1387.31596375     A.U. after   12 cycles
 SCF Done:  E(RB3LYP) =  -1387.31599379     A.U. after   11 cycles
 SCF Done:  E(RB3LYP) =  -1387.31599718     A.U. after   10 cycles
 SCF Done:  E(RB3LYP) =  -1387.31599897     A.U. after    8 cycles
 SCF Done:  E(RB3LYP) =  -1387.31599982     A.U. after    8 cycles
 SCF Done:  E(RB3LYP) =  -1387.31600018     A.U. after    7 cycles
 SCF Done:  E(RB3LYP) =  -1387.31600032     A.U. after    7 cycles
 SCF Done:  E(RB3LYP) =  -1387.31600039     A.U. after    7 cycles
 Optimization completed.
    -- Stationary point found.

                         Standard orientation:
 ---------------------------------------------------------------------
 Center     Atomic      Atomic             Coordinates (Angstroms)
 Number     Number       Type             X           Y           Z
 ---------------------------------------------------------------------
      1          6           0        2.390072   -0.187902   -2.748463
      2          6           0        3.177541    0.436738   -1.865043
      3          6           0        2.648183    0.774558   -0.491051
      4          6           0        1.559972   -0.189852    0.081121
      5          6           0        0.806470   -1.085780   -0.950816
      6          6           0        0.981006   -0.606832   -2.428052
      7          6           0        0.627008    0.752862    0.924119
      8          6           0       -0.687455    1.054699    0.235144
      9          6           0       -1.406739    0.135944   -0.443295
     10          6           0       -0.736859   -1.130970   -0.771224
     11          6           0       -2.752597    0.420456   -1.088760
     12          8           0       -2.781393    0.682641   -2.278042
     13          6           0       -4.027348    0.306467   -0.258206
     14          6           0       -4.431267   -1.185640   -0.117990
     15          6           0       -3.917415    0.973589    1.121823
     16          8           0       -1.357102   -2.141566   -1.085898
     17          6           0        1.258079    2.163871    0.946012
     18          6           0        0.034415    3.098476    1.090459
     19          8           0       -1.048653    2.334781    0.416033
     20          6           0        2.035517    2.195797   -0.382192
     21          8           0        0.337595    0.209016    2.194082
     22          6           0        1.446523   -2.474307   -0.757070
     23          6           0        1.998704   -2.494896    0.669354
     24          8           0        2.206356   -1.087438    1.004424
     25          6           0        1.196294   -3.162287    1.776010
     26          6           0        1.922353   -3.235315    3.100386
     27          6           0       -0.029136   -3.669828    1.614618
     28          6           0       -0.377593    3.288065    2.552263
     29          6           0        0.123028    4.435359    0.361266
     30          1           0        1.937587    2.271728    1.797005
     31          1           0        3.471567    0.719244    0.233589
     32          6           0        4.584867    0.870290   -2.181575
     33          1           0        2.761499   -0.399288   -3.750279
     34          1           0        0.664673   -1.429074   -3.079474
     35          1           0        0.279038    0.213794   -2.634609
     36          1           0       -4.799444    0.814224   -0.850423
     37          1           0       -3.617473   -1.735750    0.370214
     38          1           0       -5.289550   -1.221252    0.566983
     39          1           0       -4.880906    0.907818    1.639866
     40          1           0       -3.643870    2.029945    1.042206
     41          1           0       -3.166115    0.476320    1.745367
     42          1           0        2.799218    2.979084   -0.412463
     43          1           0        1.360454    2.370412   -1.228565
     44          1           0        1.017103   -0.485792    2.315815
     45          1           0        2.279968   -2.583836   -1.457042
     46          1           0        0.723881   -3.263720   -0.966513
     47          1           0        3.003586   -2.937494    0.681798
     48          1           0        2.835761   -3.840428    3.011622
     49          1           0        2.244265   -2.243463    3.442804
     50          1           0        1.294780   -3.678236    3.878956
     51          1           0       -0.568887   -3.629870    0.674947
     52          1           0       -0.546878   -4.138563    2.448401
     53          1           0       -0.442706    2.325635    3.064930
     54          1           0       -1.348868    3.790687    2.605498
     55          1           0        0.359610    3.910764    3.072037
     56          1           0        0.924213    5.045240    0.793040
     57          1           0       -0.818064    4.984323    0.467614
     58          1           0        0.321290    4.303549   -0.705286
     59          1           0        4.862681    0.618523   -3.210032
     60          1           0        4.709351    1.954749   -2.055035
     61          1           0        5.307831    0.392946   -1.505446
     62          6           0       -4.794194   -1.873244   -1.436734
     63          1           0       -3.933912   -1.920400   -2.109891
     64          1           0       -5.603504   -1.342818   -1.953144
     65          1           0       -5.129203   -2.900376   -1.251913
 ---------------------------------------------------------------------

 The electronic state is 1-A.
 Alpha  occ. eigenvalues --  -19.19489 -19.16692 -19.14786 -19.13170 -19.13161
 Alpha  occ. eigenvalues --  -10.27256 -10.26872 -10.26596 -10.26551 -10.26002
 Alpha  occ. eigenvalues --  -10.25569 -10.24717 -10.21383 -10.20320 -10.20207
 Alpha  occ. eigenvalues --  -10.20017 -10.19701 -10.19632 -10.19413 -10.19042
 Alpha  occ. eigenvalues --  -10.18866 -10.18780 -10.18631 -10.18517 -10.18507
 Alpha  occ. eigenvalues --  -10.18355 -10.18238 -10.17635 -10.17289 -10.16812
 Alpha  occ. eigenvalues --  -10.15442  -1.08846  -1.05663  -1.03447  -1.02616
 Alpha  occ. eigenvalues --   -1.01839  -0.86761  -0.83677  -0.81934  -0.81128
 Alpha  occ. eigenvalues --   -0.79843  -0.79549  -0.76655  -0.74017  -0.72894
 Alpha  occ. eigenvalues --   -0.71980  -0.71346  -0.70034  -0.68763  -0.67996
 Alpha  occ. eigenvalues --   -0.64817  -0.63829  -0.63322  -0.61627  -0.60556
 Alpha  occ. eigenvalues --   -0.59020  -0.58736  -0.56502  -0.55218  -0.53558
 Alpha  occ. eigenvalues --   -0.52753  -0.51938  -0.50575  -0.49871  -0.49016
 Alpha  occ. eigenvalues --   -0.47491  -0.47179  -0.46831  -0.46091  -0.45709
 Alpha  occ. eigenvalues --   -0.44857  -0.44543  -0.44212  -0.43484  -0.42953
 Alpha  occ. eigenvalues --   -0.42220  -0.42173  -0.42022  -0.41593  -0.41167
 Alpha  occ. eigenvalues --   -0.40863  -0.40501  -0.40132  -0.40032  -0.39877
 Alpha  occ. eigenvalues --   -0.39220  -0.38903  -0.38733  -0.38229  -0.37959
 Alpha  occ. eigenvalues --   -0.37647  -0.37346  -0.37047  -0.36512  -0.36125
 Alpha  occ. eigenvalues --   -0.35510  -0.35193  -0.35034  -0.34712  -0.34409
 Alpha  occ. eigenvalues --   -0.33481  -0.33347  -0.33045  -0.32471  -0.32195
 Alpha  occ. eigenvalues --   -0.32067  -0.31217  -0.30717  -0.27363  -0.27149
 Alpha  occ. eigenvalues --   -0.25419  -0.24633  -0.24263  -0.23489  -0.22589
 Alpha virt. eigenvalues --   -0.04131  -0.01408   0.00901   0.01537   0.04196
 Alpha virt. eigenvalues --    0.06967   0.08537   0.08982   0.09179   0.10350
 Alpha virt. eigenvalues --    0.10538   0.11178   0.11545   0.11730   0.12634

 Mulliken atomic charges:
              1
     1  C   -0.197332
     2  C    0.205284
     3  C   -0.201043
     4  C    0.324908
     5  C   -0.047413
     6  C   -0.328483
     7  C    0.199536
     8  C    0.420660
     9  C   -0.108144
    10  C    0.428295
    11  C    0.420399
    12  O   -0.444666
    13  C   -0.150110
    14  C   -0.260760
    15  C   -0.469944
    16  O   -0.511955
    17  C   -0.155538
    18  C    0.298197
    19  O   -0.535168
    20  C   -0.308914
    21  O   -0.673532
    22  C   -0.332138
    23  C    0.092635
    24  O   -0.590200
    25  C    0.183338
    26  C   -0.514333
    27  C   -0.406069
    28  C   -0.466624
    29  C   -0.460211
    30  H    0.144850
    31  H    0.148784
    32  C   -0.521176
    33  H    0.125253
    34  H    0.166510
    35  H    0.179313
    36  H    0.144579
    37  H    0.155949
    38  H    0.131117
    39  H    0.143282
    40  H    0.156969
    41  H    0.160917
    42  H    0.150266
    43  H    0.163450
    44  H    0.431428
    45  H    0.151958
    46  H    0.187762
    47  H    0.136667
    48  H    0.154759
    49  H    0.159928
    50  H    0.157836
    51  H    0.181214
    52  H    0.136808
    53  H    0.193751
    54  H    0.155948
    55  H    0.144085
    56  H    0.150362
    57  H    0.162835
    58  H    0.163510
    59  H    0.157399
    60  H    0.154197
    61  H    0.156559
    62  C   -0.446885
    63  H    0.176106
    64  H    0.136622
    65  H    0.136412
 Sum of Mulliken atomic charges =   0.00000

 Dipole moment (field-independent basis, Debye):
    X=              4.5393    Y=              1.9154    Z=              2.2721  Tot=              5.4255
 Quadrupole moment (field-independent basis, Debye-Ang):
   XX=           -180.5190   YY=           -175.5511   ZZ=           -188.6893
   XY=              0.3380   XZ=             -9.3127   YZ=              1.0114

 Normal termination of Gaussian 09 at Wed Mar 24 16:30:05 2021.
