 Gaussian 09, Revision B.01,
 Gaussian 09:  EM64L-G09RevB.01 12-Aug-2010

 ---------------------------------------
 # opt rb3lyp/6-31g(d) geom=connectivity
 ---------------------------------------

 -------------------
 Title Card Required
 -------------------
 Symbolic Z-matrix:
 Charge =  0 Multiplicity = 1

 SCF Done:  E(RB3LYP) =  -1387.30206040     A.U. after   16 cycles
 SCF Done:  E(RB3LYP) =  -1387.31467448     A.U. after   13 cycles
 SCF Done:  E(RB3LYP) =  -1387.31672209     A.U. after   13 cycles
 SCF Done:  E(RB3LYP) =  -1387.31617262     A.U. after   13 cycles
 SCF Done:  E(RB3LYP) =  -1387.31796892     A.U. after   13 cycles
 SCF Done:  E(RB3LYP) =  -1387.31734783     A.U. after   13 cycles
 SCF Done:  E(RB3LYP) =  -1387.31759805     A.U. after   14 cycles
 SCF Done:  E(RB3LYP) =  -1387.31776586     A.U. after   14 cycles
 SCF Done:  E(RB3LYP) =  -1387.31780800     A.U. after   13 cycles
 SCF Done:  E(RB3LYP) =  -1387.31839570     A.U. after   13 cycles
 SCF Done:  E(RB3LYP) =  -1387.31842121     A.U. after   12 cycles
 SCF Done:  E(RB3LYP) =  -1387.31844040     A.U. after   11 cycles
 SCF Done:  E(RB3LYP) =  -1387.31844601     A.U. after   10 cycles
 SCF Done:  E(RB3LYP) =  -1387.31844801     A.U. after    8 cycles
 SCF Done:  E(RB3LYP) =  -1387.31844882     A.U. after    7 cycles
 SCF Done:  E(RB3LYP) =  -1387.31844940     A.U. after    7 cycles
 SCF Done:  E(RB3LYP) =  -1387.31844975     A.U. after    6 cycles
 Optimization completed.
    -- Stationary point found.

                         Standard orientation:
 ---------------------------------------------------------------------
 Center     Atomic      Atomic             Coordinates (Angstroms)
 Number     Number       Type             X           Y           Z
 ---------------------------------------------------------------------
      1          6           0       -0.949833   -0.234925    3.313599
      2          6           0       -1.369277    0.965278    2.896551
      3          6           0       -1.828934    1.186039    1.470538
      4          6           0       -1.497808    0.039874    0.465303
      5          6           0       -0.636888   -1.154882    0.952453
      6          6           0       -0.894249   -1.462651    2.446890
      7          6           0       -0.882775    0.765836   -0.759692
      8          6           0        0.617364    0.939278   -0.650284
      9          6           0        1.456925    0.063498   -0.047424
     10          6           0        0.895840   -1.037276    0.733145
     11          6           0        2.952103    0.318983   -0.008133
     12          8           0        3.363739    1.339805    0.513030
     13          6           0        3.935320   -0.671080   -0.649034
     14          6           0        4.815358   -1.301999    0.459955
     15          6           0        3.286116   -1.703028   -1.580170
     16          8           0        1.619771   -1.881751    1.258761
     17          6           0       -1.295291    2.252642   -0.696084
     18          6           0       -0.173411    2.954845   -1.500242
     19          8           0        1.002024    2.081072   -1.231015
     20          6           0       -1.301588    2.501774    0.826428
     21          8           0       -1.145786    0.098120   -1.980108
     22          6           0       -1.174271   -2.307246    0.065615
     23          6           0       -2.672923   -1.982733   -0.037501
     24          8           0       -2.749887   -0.546828    0.027088
     25          6           0       -3.375743   -2.522512   -1.266075
     26          6           0       -3.217780   -4.005304   -1.496176
     27          6           0       -4.125523   -1.747027   -2.056390
     28          6           0       -0.425233    2.947355   -3.009621
     29          6           0        0.220613    4.349768   -1.021841
     30          1           0       -2.280435    2.424085   -1.141207
     31          1           0       -2.927175    1.238748    1.473855
     32          6           0       -1.475726    2.141845    3.834875
     33          1           0       -0.660824   -0.359908    4.356238
     34          1           0       -1.837408   -2.019830    2.551823
     35          1           0       -0.101927   -2.138392    2.781560
     36          1           0        4.592572   -0.021428   -1.246816
     37          1           0        5.175088   -0.486986    1.098750
     38          1           0        4.183019   -1.943449    1.083671
     39          1           0        2.621225   -1.223544   -2.307327
     40          1           0        4.051208   -2.244849   -2.145482
     41          1           0        2.703834   -2.434874   -1.012319
     42          1           0       -0.281523    2.691400    1.178228
     43          1           0       -1.905807    3.368665    1.108578
     44          1           0       -2.057307   -0.243821   -1.898775
     45          1           0       -0.975213   -3.285509    0.511112
     46          1           0       -0.712339   -2.273753   -0.926096
     47          1           0       -3.195061   -2.385864    0.845952
     48          1           0       -3.820378   -4.339605   -2.345309
     49          1           0       -2.172450   -4.275258   -1.692682
     50          1           0       -3.530615   -4.578253   -0.612426
     51          1           0       -4.274302   -0.692486   -1.847392
     52          1           0       -4.634894   -2.155273   -2.925181
     53          1           0        0.473109    3.284318   -3.537139
     54          1           0       -1.243072    3.634598   -3.255374
     55          1           0       -0.689651    1.946840   -3.356396
     56          1           0        1.065134    4.721606   -1.610295
     57          1           0       -0.619689    5.040381   -1.154986
     58          1           0        0.514374    4.353788    0.030006
     59          1           0       -1.190018    1.860744    4.853092
     60          1           0       -0.833644    2.976442    3.525642
     61          1           0       -2.503532    2.531045    3.867175
     62          6           0        6.012204   -2.094996   -0.074905
     63          1           0        6.648998   -1.473169   -0.717260
     64          1           0        6.631563   -2.459632    0.752820
     65          1           0        5.700707   -2.968272   -0.658769
 ---------------------------------------------------------------------

 The electronic state is 1-A.
 Alpha  occ. eigenvalues --  -19.19407 -19.16618 -19.15747 -19.12717 -19.12540
 Alpha  occ. eigenvalues --  -10.27180 -10.27089 -10.26545 -10.26510 -10.25714
 Alpha  occ. eigenvalues --  -10.25693 -10.25310 -10.21320 -10.20949 -10.20535
 Alpha  occ. eigenvalues --  -10.20240 -10.19810 -10.19734 -10.19427 -10.19279
 Alpha  occ. eigenvalues --  -10.19079 -10.18747 -10.18733 -10.18464 -10.18366
 Alpha  occ. eigenvalues --  -10.18081 -10.18069 -10.18020 -10.16518 -10.16241
 Alpha  occ. eigenvalues --  -10.16233  -1.09052  -1.05967  -1.02999  -1.02521
 Alpha  occ. eigenvalues --   -1.02294  -0.86675  -0.83561  -0.82429  -0.81339
 Alpha  occ. eigenvalues --   -0.80203  -0.79113  -0.76590  -0.74256  -0.73108
 Alpha  occ. eigenvalues --   -0.71783  -0.71031  -0.69831  -0.69599  -0.67894
 Alpha  occ. eigenvalues --   -0.64986  -0.64201  -0.63228  -0.61922  -0.60542
 Alpha  occ. eigenvalues --   -0.59251  -0.58025  -0.56892  -0.55132  -0.53868
 Alpha  occ. eigenvalues --   -0.52916  -0.52324  -0.50632  -0.50339  -0.49125
 Alpha  occ. eigenvalues --   -0.47800  -0.47025  -0.46462  -0.45868  -0.45712
 Alpha  occ. eigenvalues --   -0.44975  -0.44626  -0.44121  -0.43461  -0.43061
 Alpha  occ. eigenvalues --   -0.42973  -0.42513  -0.42017  -0.41791  -0.41223
 Alpha  occ. eigenvalues --   -0.41075  -0.40761  -0.40477  -0.39998  -0.39026
 Alpha  occ. eigenvalues --   -0.38936  -0.38698  -0.38194  -0.38043  -0.37800
 Alpha  occ. eigenvalues --   -0.37489  -0.37305  -0.37136  -0.37045  -0.36588
 Alpha  occ. eigenvalues --   -0.36154  -0.35914  -0.34968  -0.34487  -0.34303
 Alpha  occ. eigenvalues --   -0.33958  -0.33485  -0.33377  -0.32692  -0.31883
 Alpha  occ. eigenvalues --   -0.31107  -0.31018  -0.30319  -0.28270  -0.26431
 Alpha  occ. eigenvalues --   -0.26014  -0.24711  -0.24007  -0.23374  -0.22557
 Alpha virt. eigenvalues --   -0.04584  -0.01047   0.00876   0.02306   0.05142
 Alpha virt. eigenvalues --    0.07322   0.08258   0.08963   0.09414   0.10029
 Alpha virt. eigenvalues --    0.10499   0.11021   0.11336   0.12201   0.12430

 Mulliken atomic charges:
              1
     1  C   -0.187476
     2  C    0.194521
     3  C   -0.189482
     4  C    0.321965
     5  C   -0.052697
     6  C   -0.332458
     7  C    0.198861
     8  C    0.401098
     9  C   -0.098661
    10  C    0.432790
    11  C    0.411305
    12  O   -0.447306
    13  C   -0.130551
    14  C   -0.263808
    15  C   -0.477919
    16  O   -0.520517
    17  C   -0.165811
    18  C    0.303749
    19  O   -0.519220
    20  C   -0.325685
    21  O   -0.662295
    22  C   -0.326954
    23  C    0.107179
    24  O   -0.590020
    25  C    0.187031
    26  C   -0.519552
    27  C   -0.408953
    28  C   -0.468640
    29  C   -0.457332
    30  H    0.142438
    31  H    0.165988
    32  C   -0.520082
    33  H    0.122815
    34  H    0.145002
    35  H    0.183850
    36  H    0.147594
    37  H    0.150144
    38  H    0.166983
    39  H    0.146187
    40  H    0.145492
    41  H    0.164744
    42  H    0.174727
    43  H    0.150880
    44  H    0.416137
    45  H    0.164839
    46  H    0.173438
    47  H    0.145815
    48  H    0.161876
    49  H    0.169762
    50  H    0.159042
    51  H    0.153623
    52  H    0.139725
    53  H    0.157521
    54  H    0.142715
    55  H    0.191211
    56  H    0.165428
    57  H    0.148047
    58  H    0.168007
    59  H    0.158039
    60  H    0.160009
    61  H    0.149840
    62  C   -0.450323
    63  H    0.138334
    64  H    0.142919
    65  H    0.144071
 Sum of Mulliken atomic charges =   0.00000

 Dipole moment (field-independent basis, Debye):
    X=             -5.0221    Y=              0.4821    Z=             -1.1251  Tot=              5.1691
 Quadrupole moment (field-independent basis, Debye-Ang):
   XX=           -190.8440   YY=           -171.4947   ZZ=           -182.1498
   XY=             -2.3237   XZ=             -3.4740   YZ=             -0.0191

 Normal termination of Gaussian 09 at Wed Mar 24 17:25:54 2021.
