 Gaussian 09, Revision B.01,
 Gaussian 09:  EM64L-G09RevB.01 12-Aug-2010

 ---------------------------------------
 # opt rb3lyp/6-31g(d) geom=connectivity
 ---------------------------------------

 -------------------
 Title Card Required
 -------------------
 Symbolic Z-matrix:
 Charge =  0 Multiplicity = 1

 SCF Done:  E(RB3LYP) =  -1387.30016016     A.U. after   16 cycles
 SCF Done:  E(RB3LYP) =  -1387.31272738     A.U. after   13 cycles
 SCF Done:  E(RB3LYP) =  -1387.31507516     A.U. after   13 cycles
 SCF Done:  E(RB3LYP) =  -1387.31466415     A.U. after   13 cycles
 SCF Done:  E(RB3LYP) =  -1387.31604244     A.U. after   12 cycles
 SCF Done:  E(RB3LYP) =  -1387.31607389     A.U. after   12 cycles
 SCF Done:  E(RB3LYP) =  -1387.31622198     A.U. after   12 cycles
 SCF Done:  E(RB3LYP) =  -1387.31629397     A.U. after   11 cycles
 SCF Done:  E(RB3LYP) =  -1387.31631020     A.U. after   10 cycles
 SCF Done:  E(RB3LYP) =  -1387.31630987     A.U. after   10 cycles
 SCF Done:  E(RB3LYP) =  -1387.31631108     A.U. after    8 cycles
 SCF Done:  E(RB3LYP) =  -1387.31631112     A.U. after    7 cycles
 SCF Done:  E(RB3LYP) =  -1387.31631066     A.U. after    7 cycles
 SCF Done:  E(RB3LYP) =  -1387.31631064     A.U. after    6 cycles
 Optimization completed.
    -- Stationary point found.

                         Standard orientation:
 ---------------------------------------------------------------------
 Center     Atomic      Atomic             Coordinates (Angstroms)
 Number     Number       Type             X           Y           Z
 ---------------------------------------------------------------------
      1          6           0       -1.419109    0.018703    3.201804
      2          6           0       -1.538532    1.258186    2.715015
      3          6           0       -1.718393    1.515637    1.234476
      4          6           0       -1.519418    0.290306    0.284424
      5          6           0       -1.063331   -1.071804    0.894403
      6          6           0       -1.488696   -1.235250    2.379268
      7          6           0       -0.558848    0.815418   -0.821343
      8          6           0        0.900055    0.609713   -0.491154
      9          6           0        1.390631   -0.435151    0.206628
     10          6           0        0.454106   -1.393787    0.805639
     11          6           0        2.868454   -0.612374    0.501342
     12          8           0        3.268514   -0.488575    1.642963
     13          6           0        3.783695   -0.931216   -0.679441
     14          6           0        5.262581   -1.044623   -0.261548
     15          6           0        3.263792   -2.161133   -1.455456
     16          8           0        0.846576   -2.460759    1.262792
     17          6           0       -0.601831    2.358673   -0.807121
     18          6           0        0.771572    2.749138   -1.407840
     19          8           0        1.643866    1.629483   -0.957583
     20          6           0       -0.798241    2.649773    0.692729
     21          8           0       -0.815127    0.206514   -2.073598
     22          6           0       -1.844851   -2.090908    0.024028
     23          6           0       -3.173797   -1.366673   -0.204743
     24          8           0       -2.781238    0.016106   -0.389030
     25          6           0       -4.017520   -1.856796   -1.361697
     26          6           0       -3.548697   -1.590223   -2.770858
     27          6           0       -5.140805   -2.535675   -1.107548
     28          6           0        0.770350    2.754923   -2.938249
     29          6           0        1.402895    4.026071   -0.860346
     30          1           0       -1.430060    2.746575   -1.408313
     31          1           0       -2.758845    1.827983    1.065354
     32          6           0       -1.557580    2.467224    3.618260
     33          1           0       -1.315531   -0.116797    4.277715
     34          1           0       -2.517618   -1.623543    2.423625
     35          1           0       -0.862419   -2.021391    2.812139
     36          1           0        3.687394   -0.063394   -1.351525
     37          1           0        5.872207   -1.005255   -1.174864
     38          1           0        5.522203   -0.157779    0.328032
     39          1           0        3.954093   -2.407514   -2.270209
     40          1           0        2.280458   -1.966701   -1.894464
     41          1           0        3.172487   -3.037197   -0.806198
     42          1           0        0.165627    2.607267    1.211939
     43          1           0       -1.218415    3.642531    0.877182
     44          1           0       -1.786760    0.103233   -2.077212
     45          1           0       -1.330888   -2.262083   -0.926870
     46          1           0       -1.964573   -3.052600    0.528862
     47          1           0       -3.785040   -1.426156    0.705540
     48          1           0       -2.505392   -1.889222   -2.927243
     49          1           0       -4.165026   -2.130503   -3.495151
     50          1           0       -3.623594   -0.521634   -3.013155
     51          1           0       -5.746003   -2.958221   -1.905267
     52          1           0       -5.493872   -2.701423   -0.092603
     53          1           0        1.795358    2.852408   -3.310845
     54          1           0        0.190424    3.608181   -3.308636
     55          1           0        0.331528    1.836033   -3.331202
     56          1           0        1.509018    3.997653    0.226394
     57          1           0        2.397130    4.169171   -1.295527
     58          1           0        0.786517    4.891372   -1.128300
     59          1           0       -1.489243    2.173751    4.670205
     60          1           0       -0.728181    3.154626    3.408460
     61          1           0       -2.484508    3.043925    3.487316
     62          6           0        5.629340   -2.300968    0.538639
     63          1           0        6.688764   -2.276339    0.819178
     64          1           0        5.038865   -2.365537    1.456424
     65          1           0        5.466231   -3.216665   -0.041019
 ---------------------------------------------------------------------

 The electronic state is 1-A.
 Alpha  occ. eigenvalues --  -19.19651 -19.16723 -19.15859 -19.12947 -19.12510
 Alpha  occ. eigenvalues --  -10.26991 -10.26933 -10.26836 -10.26682 -10.25854
 Alpha  occ. eigenvalues --  -10.25836 -10.24981 -10.21332 -10.20744 -10.20660
 Alpha  occ. eigenvalues --  -10.20296 -10.19870 -10.19459 -10.19353 -10.19245
 Alpha  occ. eigenvalues --  -10.19179 -10.19093 -10.18814 -10.18720 -10.18501
 Alpha  occ. eigenvalues --  -10.18417 -10.18380 -10.18045 -10.16953 -10.16848
 Alpha  occ. eigenvalues --  -10.15440  -1.09040  -1.05918  -1.03265  -1.02561
 Alpha  occ. eigenvalues --   -1.02252  -0.86591  -0.83681  -0.82446  -0.81372
 Alpha  occ. eigenvalues --   -0.80183  -0.79418  -0.76718  -0.74196  -0.73146
 Alpha  occ. eigenvalues --   -0.71883  -0.70991  -0.70078  -0.69982  -0.67764
 Alpha  occ. eigenvalues --   -0.64938  -0.64555  -0.63055  -0.62039  -0.60530
 Alpha  occ. eigenvalues --   -0.59190  -0.58590  -0.56884  -0.54985  -0.53660
 Alpha  occ. eigenvalues --   -0.52710  -0.52101  -0.50429  -0.50228  -0.49358
 Alpha  occ. eigenvalues --   -0.47830  -0.47349  -0.46834  -0.46347  -0.45573
 Alpha  occ. eigenvalues --   -0.44996  -0.44817  -0.44366  -0.43873  -0.43672
 Alpha  occ. eigenvalues --   -0.42838  -0.42496  -0.41981  -0.41468  -0.41352
 Alpha  occ. eigenvalues --   -0.40857  -0.40630  -0.40405  -0.40116  -0.39225
 Alpha  occ. eigenvalues --   -0.39113  -0.38535  -0.38440  -0.38200  -0.37758
 Alpha  occ. eigenvalues --   -0.37604  -0.37402  -0.37132  -0.36783  -0.36722
 Alpha  occ. eigenvalues --   -0.36652  -0.36172  -0.35205  -0.34918  -0.34404
 Alpha  occ. eigenvalues --   -0.33803  -0.33647  -0.32773  -0.32346  -0.31972
 Alpha  occ. eigenvalues --   -0.31469  -0.31215  -0.31006  -0.28317  -0.27112
 Alpha  occ. eigenvalues --   -0.25670  -0.24571  -0.24105  -0.23286  -0.22802
 Alpha virt. eigenvalues --   -0.04467  -0.01122   0.00603   0.02364   0.05014
 Alpha virt. eigenvalues --    0.07102   0.08277   0.08721   0.09196   0.09989
 Alpha virt. eigenvalues --    0.10294   0.10450   0.11219   0.12261   0.12443

 Mulliken atomic charges:
              1
     1  C   -0.183878
     2  C    0.194783
     3  C   -0.190384
     4  C    0.327887
     5  C   -0.049292
     6  C   -0.339266
     7  C    0.190235
     8  C    0.395704
     9  C   -0.093836
    10  C    0.427943
    11  C    0.428937
    12  O   -0.442488
    13  C   -0.173899
    14  C   -0.246734
    15  C   -0.462122
    16  O   -0.501640
    17  C   -0.163844
    18  C    0.305452
    19  O   -0.540482
    20  C   -0.321994
    21  O   -0.673168
    22  C   -0.311209
    23  C    0.076913
    24  O   -0.597211
    25  C    0.240144
    26  C   -0.546589
    27  C   -0.403932
    28  C   -0.467754
    29  C   -0.459431
    30  H    0.143627
    31  H    0.163802
    32  C   -0.519291
    33  H    0.123472
    34  H    0.146047
    35  H    0.187839
    36  H    0.157775
    37  H    0.121562
    38  H    0.144978
    39  H    0.145897
    40  H    0.154328
    41  H    0.172280
    42  H    0.168728
    43  H    0.151441
    44  H    0.433385
    45  H    0.162953
    46  H    0.169748
    47  H    0.136480
    48  H    0.174098
    49  H    0.161525
    50  H    0.166233
    51  H    0.141849
    52  H    0.142208
    53  H    0.155290
    54  H    0.143875
    55  H    0.191403
    56  H    0.164080
    57  H    0.162725
    58  H    0.150986
    59  H    0.158619
    60  H    0.157548
    61  H    0.149613
    62  C   -0.452721
    63  H    0.135657
    64  H    0.175474
    65  H    0.137646
 Sum of Mulliken atomic charges =   0.00000

 Dipole moment (field-independent basis, Debye):
    X=             -4.1151    Y=              3.5230    Z=             -2.6462  Tot=              6.0289
 Quadrupole moment (field-independent basis, Debye-Ang):
   XX=           -186.2426   YY=           -176.8483   ZZ=           -183.7169
   XY=              7.2618   XZ=             -8.3908   YZ=              2.9765

 Normal termination of Gaussian 09 at Wed Mar 24 17:41:58 2021.
