 Gaussian 09, Revision B.01,
 Gaussian 09:  EM64L-G09RevB.01 12-Aug-2010

 ---------------------------------------
 # opt rb3lyp/6-31g(d) geom=connectivity
 ---------------------------------------

 -------------------
 Title Card Required
 -------------------
 Symbolic Z-matrix:
 Charge =  0 Multiplicity = 1

 SCF Done:  E(RB3LYP) =  -1387.29974255     A.U. after   16 cycles
 SCF Done:  E(RB3LYP) =  -1387.31227637     A.U. after   13 cycles
 SCF Done:  E(RB3LYP) =  -1387.31445255     A.U. after   13 cycles
 SCF Done:  E(RB3LYP) =  -1387.31457363     A.U. after   13 cycles
 SCF Done:  E(RB3LYP) =  -1387.31581776     A.U. after   13 cycles
 SCF Done:  E(RB3LYP) =  -1387.31648206     A.U. after   13 cycles
 SCF Done:  E(RB3LYP) =  -1387.31692162     A.U. after   15 cycles
 SCF Done:  E(RB3LYP) =  -1387.31767796     A.U. after   12 cycles
 SCF Done:  E(RB3LYP) =  -1387.31817056     A.U. after   13 cycles
 SCF Done:  E(RB3LYP) =  -1387.31862392     A.U. after   13 cycles
 SCF Done:  E(RB3LYP) =  -1387.31957843     A.U. after   13 cycles
 SCF Done:  E(RB3LYP) =  -1387.31961466     A.U. after   13 cycles
 SCF Done:  E(RB3LYP) =  -1387.31964781     A.U. after   11 cycles
 SCF Done:  E(RB3LYP) =  -1387.31974456     A.U. after   13 cycles
 SCF Done:  E(RB3LYP) =  -1387.31975690     A.U. after   12 cycles
 SCF Done:  E(RB3LYP) =  -1387.31976975     A.U. after   12 cycles
 SCF Done:  E(RB3LYP) =  -1387.31977276     A.U. after   10 cycles
 SCF Done:  E(RB3LYP) =  -1387.31977409     A.U. after   10 cycles
 SCF Done:  E(RB3LYP) =  -1387.31977466     A.U. after    8 cycles
 SCF Done:  E(RB3LYP) =  -1387.31977507     A.U. after    7 cycles
 Optimization completed.
    -- Stationary point found.

                         Standard orientation:
 ---------------------------------------------------------------------
 Center     Atomic      Atomic             Coordinates (Angstroms)
 Number     Number       Type             X           Y           Z
 ---------------------------------------------------------------------
      1          6           0       -1.834288    0.017048    2.886972
      2          6           0       -2.644589    0.800374    2.164616
      3          6           0       -2.283347    1.153508    0.740031
      4          6           0       -1.403818    0.111447   -0.025697
      5          6           0       -0.649050   -0.951083    0.840558
      6          6           0       -0.547022   -0.540846    2.339999
      7          6           0       -0.471457    0.971631   -0.929674
      8          6           0        0.945545    1.094245   -0.374981
      9          6           0        1.641045    0.029563    0.131497
     10          6           0        0.825744   -1.181467    0.375553
     11          6           0        3.107834    0.136585    0.440634
     12          8           0        3.635583    1.239478    0.491676
     13          6           0        3.936523   -1.132641    0.655923
     14          6           0        4.208616   -1.781588   -0.727783
     15          6           0        5.224380   -0.804407    1.420087
     16          8           0        1.275362   -2.320909    0.374918
     17          6           0       -0.935061    2.440913   -0.838353
     18          6           0        0.365564    3.232318   -1.090081
     19          8           0        1.408935    2.325880   -0.539268
     20          6           0       -1.536846    2.504855    0.579674
     21          8           0       -0.371405    0.450579   -2.239099
     22          6           0       -1.482829   -2.245653    0.648200
     23          6           0       -2.683978   -1.834657   -0.207290
     24          8           0       -2.230534   -0.653325   -0.913447
     25          6           0       -3.246759   -2.813916   -1.213904
     26          6           0       -4.281908   -2.242906   -2.153037
     27          6           0       -2.906296   -4.105542   -1.229977
     28          6           0        0.661692    3.417375   -2.580343
     29          6           0        0.515182    4.546493   -0.330354
     30          1           0       -1.690584    2.659473   -1.598689
     31          1           0       -3.205302    1.223059    0.146361
     32          6           0       -3.915362    1.394211    2.714788
     33          1           0       -2.084915   -0.212402    3.921578
     34          1           0       -0.229977   -1.420103    2.911685
     35          1           0        0.256186    0.199524    2.463184
     36          1           0        3.335527   -1.846624    1.228261
     37          1           0        3.266699   -1.838955   -1.283701
     38          1           0        4.876243   -1.120499   -1.297885
     39          1           0        5.807127   -1.712407    1.605724
     40          1           0        5.001140   -0.343199    2.388224
     41          1           0        5.843708   -0.098388    0.859029
     42          1           0       -2.198622    3.364073    0.725185
     43          1           0       -0.745087    2.575558    1.335051
     44          1           0       -1.070574   -0.232514   -2.293257
     45          1           0       -1.801843   -2.673640    1.602254
     46          1           0       -0.859396   -2.985343    0.142461
     47          1           0       -3.510995   -1.515455    0.448678
     48          1           0       -5.117510   -1.798452   -1.594708
     49          1           0       -3.857690   -1.442209   -2.769305
     50          1           0       -4.685940   -3.014004   -2.815409
     51          1           0       -2.174150   -4.529810   -0.550820
     52          1           0       -3.365601   -4.795409   -1.933399
     53          1           0        0.555559    2.474143   -3.120877
     54          1           0        1.681353    3.792438   -2.712966
     55          1           0       -0.033186    4.147165   -3.011404
     56          1           0       -0.238638    5.263596   -0.673611
     57          1           0        1.505197    4.974215   -0.515597
     58          1           0        0.401860    4.410365    0.747989
     59          1           0       -4.082849    1.094455    3.754076
     60          1           0       -3.892528    2.492278    2.681127
     61          1           0       -4.788481    1.082979    2.124472
     62          6           0        4.806216   -3.189467   -0.642580
     63          1           0        4.134445   -3.860023   -0.093970
     64          1           0        5.779407   -3.197107   -0.139667
     65          1           0        4.951493   -3.608772   -1.645165
 ---------------------------------------------------------------------

 The electronic state is 1-A.
 Alpha  occ. eigenvalues --  -19.19898 -19.17188 -19.15220 -19.13309 -19.11187
 Alpha  occ. eigenvalues --  -10.27390 -10.27266 -10.26601 -10.26239 -10.26077
 Alpha  occ. eigenvalues --  -10.25530 -10.25007 -10.21540 -10.20710 -10.20604
 Alpha  occ. eigenvalues --  -10.20445 -10.20395 -10.20168 -10.20004 -10.19322
 Alpha  occ. eigenvalues --  -10.19063 -10.18963 -10.18948 -10.18653 -10.18585
 Alpha  occ. eigenvalues --  -10.18328 -10.18147 -10.17077 -10.16633 -10.15819
 Alpha  occ. eigenvalues --  -10.15349  -1.09566  -1.06634  -1.03323  -1.02423
 Alpha  occ. eigenvalues --   -1.01241  -0.87117  -0.83765  -0.82192  -0.81386
 Alpha  occ. eigenvalues --   -0.80174  -0.78673  -0.76707  -0.74159  -0.73142
 Alpha  occ. eigenvalues --   -0.72167  -0.70655  -0.70088  -0.69210  -0.68309
 Alpha  occ. eigenvalues --   -0.65386  -0.64035  -0.63723  -0.61470  -0.60689
 Alpha  occ. eigenvalues --   -0.59191  -0.57723  -0.56846  -0.54696  -0.53518
 Alpha  occ. eigenvalues --   -0.52714  -0.51632  -0.51343  -0.49931  -0.49591
 Alpha  occ. eigenvalues --   -0.48142  -0.47137  -0.46946  -0.46514  -0.46023
 Alpha  occ. eigenvalues --   -0.45315  -0.44436  -0.44048  -0.43643  -0.43275
 Alpha  occ. eigenvalues --   -0.42681  -0.42412  -0.41711  -0.41553  -0.41222
 Alpha  occ. eigenvalues --   -0.40830  -0.40544  -0.40348  -0.39989  -0.39805
 Alpha  occ. eigenvalues --   -0.39332  -0.38877  -0.38497  -0.38195  -0.37592
 Alpha  occ. eigenvalues --   -0.37454  -0.37103  -0.37032  -0.36819  -0.36337
 Alpha  occ. eigenvalues --   -0.35828  -0.35317  -0.34613  -0.34230  -0.34077
 Alpha  occ. eigenvalues --   -0.33817  -0.33254  -0.33105  -0.32887  -0.32508
 Alpha  occ. eigenvalues --   -0.31479  -0.30768  -0.30186  -0.28298  -0.27375
 Alpha  occ. eigenvalues --   -0.25913  -0.24613  -0.24290  -0.23403  -0.21885
 Alpha virt. eigenvalues --   -0.04884  -0.00893   0.00921   0.00962   0.05695
 Alpha virt. eigenvalues --    0.07398   0.08207   0.08699   0.09554   0.10260
 Alpha virt. eigenvalues --    0.10471   0.11309   0.11535   0.11873   0.12164

 Mulliken atomic charges:
              1
     1  C   -0.193949
     2  C    0.199010
     3  C   -0.198713
     4  C    0.315809
     5  C   -0.023057
     6  C   -0.329529
     7  C    0.193015
     8  C    0.403334
     9  C   -0.067884
    10  C    0.372150
    11  C    0.398486
    12  O   -0.472212
    13  C   -0.151086
    14  C   -0.251008
    15  C   -0.442780
    16  O   -0.488165
    17  C   -0.152609
    18  C    0.290907
    19  O   -0.483225
    20  C   -0.310762
    21  O   -0.666902
    22  C   -0.334548
    23  C    0.104310
    24  O   -0.584536
    25  C    0.187491
    26  C   -0.505983
    27  C   -0.393522
    28  C   -0.468266
    29  C   -0.460349
    30  H    0.148309
    31  H    0.147433
    32  C   -0.521384
    33  H    0.125597
    34  H    0.161028
    35  H    0.163755
    36  H    0.151671
    37  H    0.151966
    38  H    0.133989
    39  H    0.134793
    40  H    0.140184
    41  H    0.157360
    42  H    0.152247
    43  H    0.163077
    44  H    0.422771
    45  H    0.148099
    46  H    0.189351
    47  H    0.135918
    48  H    0.151069
    49  H    0.168944
    50  H    0.154221
    51  H    0.152162
    52  H    0.139468
    53  H    0.194879
    54  H    0.164394
    55  H    0.144043
    56  H    0.149238
    57  H    0.171785
    58  H    0.161708
    59  H    0.158797
    60  H    0.156842
    61  H    0.155001
    62  C   -0.447991
    63  H    0.153581
    64  H    0.141787
    65  H    0.138485
 Sum of Mulliken atomic charges =   0.00000

 Dipole moment (field-independent basis, Debye):
    X=             -6.2111    Y=              1.7855    Z=              0.6857  Tot=              6.4989
 Quadrupole moment (field-independent basis, Debye-Ang):
   XX=           -190.1018   YY=           -177.0556   ZZ=           -180.6610
   XY=             -4.7747   XZ=             -2.1946   YZ=             -2.4408

 Normal termination of Gaussian 09 at Wed Mar 24 17:14:37 2021.
