 Gaussian 09, Revision B.01,
 Gaussian 09:  EM64L-G09RevB.01 12-Aug-2010

 ---------------------------------------
 # opt rb3lyp/6-31g(d) geom=connectivity
 ---------------------------------------

 -------------------
 Title Card Required
 -------------------
 Symbolic Z-matrix:
 Charge =  0 Multiplicity = 1

 SCF Done:  E(RB3LYP) =  -1387.29892744     A.U. after   16 cycles
 SCF Done:  E(RB3LYP) =  -1387.31117167     A.U. after   13 cycles
 SCF Done:  E(RB3LYP) =  -1387.31313944     A.U. after   13 cycles
 SCF Done:  E(RB3LYP) =  -1387.31165871     A.U. after   13 cycles
 SCF Done:  E(RB3LYP) =  -1387.31387680     A.U. after   13 cycles
 SCF Done:  E(RB3LYP) =  -1387.31391789     A.U. after   12 cycles
 SCF Done:  E(RB3LYP) =  -1387.31400938     A.U. after   12 cycles
 SCF Done:  E(RB3LYP) =  -1387.31408332     A.U. after   11 cycles
 SCF Done:  E(RB3LYP) =  -1387.31410028     A.U. after   10 cycles
 SCF Done:  E(RB3LYP) =  -1387.31410524     A.U. after   10 cycles
 SCF Done:  E(RB3LYP) =  -1387.31412663     A.U. after   15 cycles
 SCF Done:  E(RB3LYP) =  -1387.31375907     A.U. after   13 cycles
 SCF Done:  E(RB3LYP) =  -1387.31412199     A.U. after   13 cycles
 SCF Done:  E(RB3LYP) =  -1387.31412640     A.U. after   10 cycles
 SCF Done:  E(RB3LYP) =  -1387.31412707     A.U. after    8 cycles
 SCF Done:  E(RB3LYP) =  -1387.31412596     A.U. after    9 cycles
 SCF Done:  E(RB3LYP) =  -1387.31412611     A.U. after    6 cycles
 SCF Done:  E(RB3LYP) =  -1387.31412531     A.U. after    9 cycles
 SCF Done:  E(RB3LYP) =  -1387.31412537     A.U. after    6 cycles
 SCF Done:  E(RB3LYP) =  -1387.31412532     A.U. after    6 cycles
 Optimization completed.
    -- Stationary point found.

                         Standard orientation:
 ---------------------------------------------------------------------
 Center     Atomic      Atomic             Coordinates (Angstroms)
 Number     Number       Type             X           Y           Z
 ---------------------------------------------------------------------
      1          6           0       -2.266703    0.763043    2.637025
      2          6           0       -2.693376    1.596051    1.680336
      3          6           0       -2.019250    1.607149    0.328170
      4          6           0       -1.346723    0.268202   -0.122211
      5          6           0       -1.048124   -0.787510    1.000421
      6          6           0       -1.118369   -0.188667    2.440177
      7          6           0       -0.098232    0.721235   -0.945184
      8          6           0        1.197072    0.591734   -0.165860
      9          6           0        1.480816   -0.452084    0.636854
     10          6           0        0.380379   -1.389619    0.927893
     11          6           0        2.783651   -0.651799    1.389363
     12          8           0        2.824508   -0.352314    2.568898
     13          6           0        3.999981   -1.236631    0.670535
     14          6           0        3.608074   -2.265165   -0.410152
     15          6           0        4.877442   -0.085282    0.132677
     16          8           0        0.577326   -2.550543    1.261951
     17          6           0       -0.160905    2.256964   -1.109345
     18          6           0        1.326726    2.662481   -1.227598
     19          8           0        2.018286    1.627031   -0.417093
     20          6           0       -0.918781    2.688478    0.161403
     21          8           0        0.039759   -0.005123   -2.150719
     22          6           0       -2.116083   -1.889997    0.770239
     23          6           0       -3.043585   -1.333420   -0.310930
     24          8           0       -2.209649   -0.407862   -1.049366
     25          6           0       -3.695218   -2.286305   -1.288505
     26          6           0       -4.409874   -1.629654   -2.444817
     27          6           0       -3.698798   -3.609857   -1.107256
     28          6           0        1.843935    2.545693   -2.663657
     29          6           0        1.704125    4.005453   -0.610405
     30          1           0       -0.718756    2.531182   -2.009820
     31          1           0       -2.776953    1.802973   -0.443410
     32          6           0       -3.820361    2.574266    1.889146
     33          1           0       -2.739465    0.781164    3.618068
     34          1           0       -1.181135   -1.024731    3.144849
     35          1           0       -0.169227    0.315888    2.673793
     36          1           0        4.566205   -1.745387    1.462362
     37          1           0        2.846656   -2.935493    0.006554
     38          1           0        3.130418   -1.745371   -1.251433
     39          1           0        5.806339   -0.479434   -0.292100
     40          1           0        5.141585    0.605811    0.939937
     41          1           0        4.357257    0.483080   -0.644864
     42          1           0       -1.337323    3.696981    0.087585
     43          1           0       -0.257512    2.675284    1.036004
     44          1           0       -0.804741   -0.490183   -2.249161
     45          1           0       -2.664063   -2.128756    1.685355
     46          1           0       -1.614377   -2.801525    0.438037
     47          1           0       -3.842729   -0.738125    0.161424
     48          1           0       -5.165676   -0.917007   -2.086609
     49          1           0       -3.713021   -1.057244   -3.067689
     50          1           0       -4.910499   -2.370431   -3.075115
     51          1           0       -3.200360   -4.090286   -0.271638
     52          1           0       -4.219205   -4.267506   -1.798925
     53          1           0        1.574544    1.579067   -3.095345
     54          1           0        2.933254    2.655870   -2.679385
     55          1           0        1.410506    3.337952   -3.284805
     56          1           0        1.207135    4.819226   -1.150002
     57          1           0        2.785474    4.160756   -0.680782
     58          1           0        1.420569    4.061461    0.443377
     59          1           0       -4.232871    2.502423    2.900450
     60          1           0       -3.487520    3.610044    1.734839
     61          1           0       -4.636580    2.400052    1.174054
     62          6           0        4.788296   -3.099734   -0.920510
     63          1           0        5.278803   -3.636487   -0.098933
     64          1           0        5.547493   -2.484483   -1.416434
     65          1           0        4.447234   -3.846432   -1.646458
 ---------------------------------------------------------------------

 The electronic state is 1-A.
 Alpha  occ. eigenvalues --  -19.19354 -19.16968 -19.14914 -19.13202 -19.13054
 Alpha  occ. eigenvalues --  -10.27058 -10.26944 -10.26594 -10.26397 -10.26065
 Alpha  occ. eigenvalues --  -10.25821 -10.24826 -10.21331 -10.20447 -10.20415
 Alpha  occ. eigenvalues --  -10.20292 -10.20173 -10.19760 -10.19366 -10.19057
 Alpha  occ. eigenvalues --  -10.19021 -10.18779 -10.18673 -10.18567 -10.18537
 Alpha  occ. eigenvalues --  -10.18380 -10.18239 -10.18232 -10.17054 -10.16933
 Alpha  occ. eigenvalues --  -10.16598  -1.08714  -1.06323  -1.03433  -1.02622
 Alpha  occ. eigenvalues --   -1.02087  -0.86793  -0.83622  -0.82085  -0.81282
 Alpha  occ. eigenvalues --   -0.80006  -0.79631  -0.76644  -0.73972  -0.72907
 Alpha  occ. eigenvalues --   -0.72039  -0.71558  -0.70106  -0.69113  -0.68142
 Alpha  occ. eigenvalues --   -0.65451  -0.63897  -0.63796  -0.61580  -0.60580
 Alpha  occ. eigenvalues --   -0.58910  -0.58184  -0.56739  -0.55475  -0.53904
 Alpha  occ. eigenvalues --   -0.52752  -0.51718  -0.50986  -0.49928  -0.49345
 Alpha  occ. eigenvalues --   -0.47940  -0.46858  -0.46773  -0.46251  -0.45813
 Alpha  occ. eigenvalues --   -0.45208  -0.44639  -0.44122  -0.43974  -0.42965
 Alpha  occ. eigenvalues --   -0.42670  -0.42607  -0.42168  -0.41682  -0.41282
 Alpha  occ. eigenvalues --   -0.40759  -0.40712  -0.40312  -0.40043  -0.39492
 Alpha  occ. eigenvalues --   -0.39352  -0.39058  -0.38745  -0.38374  -0.38061
 Alpha  occ. eigenvalues --   -0.37770  -0.37476  -0.37226  -0.36996  -0.36224
 Alpha  occ. eigenvalues --   -0.35859  -0.35442  -0.34974  -0.34714  -0.34174
 Alpha  occ. eigenvalues --   -0.33993  -0.33576  -0.33017  -0.32826  -0.32353
 Alpha  occ. eigenvalues --   -0.31645  -0.31255  -0.30941  -0.28013  -0.27247
 Alpha  occ. eigenvalues --   -0.25808  -0.24504  -0.24221  -0.23392  -0.22648
 Alpha virt. eigenvalues --   -0.03753  -0.01481   0.00990   0.01269   0.04038
 Alpha virt. eigenvalues --    0.06936   0.08097   0.08960   0.09208   0.10187
 Alpha virt. eigenvalues --    0.10530   0.10800   0.11560   0.11957   0.12312

 Mulliken atomic charges:
              1
     1  C   -0.193382
     2  C    0.197458
     3  C   -0.196552
     4  C    0.315057
     5  C   -0.027810
     6  C   -0.333008
     7  C    0.200771
     8  C    0.411045
     9  C   -0.107216
    10  C    0.410068
    11  C    0.412982
    12  O   -0.442776
    13  C   -0.143573
    14  C   -0.278382
    15  C   -0.465465
    16  O   -0.493091
    17  C   -0.156429
    18  C    0.300203
    19  O   -0.539206
    20  C   -0.309462
    21  O   -0.670868
    22  C   -0.328901
    23  C    0.101863
    24  O   -0.585285
    25  C    0.188565
    26  C   -0.505840
    27  C   -0.394748
    28  C   -0.467733
    29  C   -0.460417
    30  H    0.146199
    31  H    0.145948
    32  C   -0.521097
    33  H    0.125467
    34  H    0.164748
    35  H    0.180484
    36  H    0.150092
    37  H    0.167839
    38  H    0.142211
    39  H    0.149919
    40  H    0.158119
    41  H    0.160392
    42  H    0.150367
    43  H    0.164952
    44  H    0.421152
    45  H    0.151101
    46  H    0.182604
    47  H    0.137186
    48  H    0.151415
    49  H    0.168503
    50  H    0.153700
    51  H    0.152505
    52  H    0.139031
    53  H    0.194539
    54  H    0.155622
    55  H    0.144064
    56  H    0.149999
    57  H    0.163094
    58  H    0.162860
    59  H    0.158439
    60  H    0.155511
    61  H    0.153592
    62  C   -0.448888
    63  H    0.143520
    64  H    0.141790
    65  H    0.145152
 Sum of Mulliken atomic charges =   0.00000

 Dipole moment (field-independent basis, Debye):
    X=             -3.6678    Y=              3.7812    Z=             -2.4691  Tot=              5.8178
 Quadrupole moment (field-independent basis, Debye-Ang):
   XX=           -177.4156   YY=           -177.8398   ZZ=           -190.6814
   XY=              2.3549   XZ=             -8.0724   YZ=              0.6605

 Normal termination of Gaussian 09 at Wed Mar 24 18:43:41 2021.
