 Gaussian 09, Revision B.01,
 Gaussian 09:  EM64L-G09RevB.01 12-Aug-2010

 ---------------------------------------
 # opt rb3lyp/6-31g(d) geom=connectivity
 ---------------------------------------

 -------------------
 Title Card Required
 -------------------
 Symbolic Z-matrix:
 Charge =  0 Multiplicity = 1

 SCF Done:  E(RB3LYP) =  -1387.30419324     A.U. after   16 cycles
 SCF Done:  E(RB3LYP) =  -1387.31662119     A.U. after   13 cycles
 SCF Done:  E(RB3LYP) =  -1387.31845508     A.U. after   13 cycles
 SCF Done:  E(RB3LYP) =  -1387.31795440     A.U. after   13 cycles
 SCF Done:  E(RB3LYP) =  -1387.31937962     A.U. after   13 cycles
 SCF Done:  E(RB3LYP) =  -1387.31949040     A.U. after   13 cycles
 SCF Done:  E(RB3LYP) =  -1387.31951423     A.U. after   12 cycles
 SCF Done:  E(RB3LYP) =  -1387.31958579     A.U. after   11 cycles
 SCF Done:  E(RB3LYP) =  -1387.31960163     A.U. after   10 cycles
 SCF Done:  E(RB3LYP) =  -1387.31960418     A.U. after   10 cycles
 SCF Done:  E(RB3LYP) =  -1387.31960390     A.U. after   10 cycles
 SCF Done:  E(RB3LYP) =  -1387.31960314     A.U. after   10 cycles
 SCF Done:  E(RB3LYP) =  -1387.31960263     A.U. after    8 cycles
 SCF Done:  E(RB3LYP) =  -1387.31960223     A.U. after    8 cycles
 SCF Done:  E(RB3LYP) =  -1387.31960204     A.U. after    7 cycles
 Optimization completed.
    -- Stationary point found.

                         Standard orientation:
 ---------------------------------------------------------------------
 Center     Atomic      Atomic             Coordinates (Angstroms)
 Number     Number       Type             X           Y           Z
 ---------------------------------------------------------------------
      1          6           0       -1.817539    0.579475    2.832340
      2          6           0       -2.171826    1.641878    2.099120
      3          6           0       -1.687196    1.777597    0.674447
      4          6           0       -1.373399    0.443788   -0.078000
      5          6           0       -1.182432   -0.840734    0.801319
      6          6           0       -0.935508   -0.520857    2.306948
      7          6           0       -0.157136    0.792582   -0.998089
      8          6           0        1.165436    0.280391   -0.450293
      9          6           0        1.309443   -0.934163    0.127587
     10          6           0        0.051873   -1.685878    0.379070
     11          6           0        2.597557   -1.516864    0.630703
     12          8           0        2.624997   -2.054454    1.726610
     13          6           0        3.819058   -1.495325   -0.289201
     14          6           0        5.137246   -1.511053    0.499652
     15          6           0        3.699638   -2.719511   -1.226463
     16          8           0        0.003928   -2.903201    0.377225
     17          6           0        0.083195    2.316843   -0.915130
     18          6           0        1.598745    2.452238   -1.183834
     19          8           0        2.142641    1.184396   -0.629503
     20          6           0       -0.414682    2.648339    0.505529
     21          8           0       -0.313439    0.277889   -2.304832
     22          6           0       -2.492432   -1.639029    0.583140
     23          6           0       -3.383195   -0.732227   -0.286522
     24          8           0       -2.461432    0.133946   -0.963156
     25          6           0       -4.284689   -1.450938   -1.262467
     26          6           0       -5.284253   -2.382771   -0.621393
     27          6           0       -4.221057   -1.261817   -2.582349
     28          6           0        1.923587    2.479418   -2.679587
     29          6           0        2.313749    3.577742   -0.443067
     30          1           0       -0.504210    2.846103   -1.671278
     31          1           0       -2.477476    2.249187    0.074192
     32          6           0       -3.025774    2.760545    2.637804
     33          1           0       -2.147893    0.505230    3.867543
     34          1           0       -1.086809   -1.445340    2.874392
     35          1           0        0.121370   -0.259844    2.461812
     36          1           0        3.771750   -0.590382   -0.905868
     37          1           0        5.960571   -1.661310   -0.211759
     38          1           0        5.132806   -2.378167    1.169937
     39          1           0        3.761486   -3.650185   -0.651795
     40          1           0        2.748876   -2.721342   -1.770118
     41          1           0        4.513340   -2.711915   -1.960300
     42          1           0        0.329418    2.359069    1.257238
     43          1           0       -0.620209    3.713623    0.648317
     44          1           0       -1.241372   -0.030212   -2.345006
     45          1           0       -2.257348   -2.575859    0.070980
     46          1           0       -2.981060   -1.890158    1.528075
     47          1           0       -4.014574   -0.109656    0.369328
     48          1           0       -5.900329   -1.856512    0.120924
     49          1           0       -5.953111   -2.817715   -1.369365
     50          1           0       -4.787072   -3.206071   -0.092120
     51          1           0       -4.888131   -1.792044   -3.256816
     52          1           0       -3.515733   -0.572722   -3.033610
     53          1           0        3.003634    2.379359   -2.829095
     54          1           0        1.603953    3.432886   -3.115422
     55          1           0        1.412712    1.669301   -3.205001
     56          1           0        2.164162    3.514542    0.637613
     57          1           0        3.389439    3.533522   -0.641254
     58          1           0        1.943483    4.548532   -0.790494
     59          1           0       -3.312453    2.582051    3.678963
     60          1           0       -2.499720    3.724347    2.594811
     61          1           0       -3.943964    2.880687    2.046038
     62          6           0        5.388109   -0.235426    1.311037
     63          1           0        4.615519   -0.097040    2.074758
     64          1           0        6.356534   -0.279239    1.822455
     65          1           0        5.389749    0.653225    0.667367
 ---------------------------------------------------------------------

 The electronic state is 1-A.
 Alpha  occ. eigenvalues --  -19.19819 -19.17150 -19.15152 -19.13009 -19.12496
 Alpha  occ. eigenvalues --  -10.26936 -10.26887 -10.26882 -10.26347 -10.26267
 Alpha  occ. eigenvalues --  -10.26067 -10.24897 -10.21323 -10.20663 -10.20541
 Alpha  occ. eigenvalues --  -10.20375 -10.20098 -10.19913 -10.19539 -10.19347
 Alpha  occ. eigenvalues --  -10.19124 -10.18853 -10.18835 -10.18818 -10.18632
 Alpha  occ. eigenvalues --  -10.18449 -10.18109 -10.17726 -10.16968 -10.16835
 Alpha  occ. eigenvalues --  -10.16171  -1.09153  -1.06678  -1.03335  -1.02392
 Alpha  occ. eigenvalues --   -1.02111  -0.86991  -0.83849  -0.82170  -0.81345
 Alpha  occ. eigenvalues --   -0.80100  -0.79382  -0.76844  -0.73959  -0.73145
 Alpha  occ. eigenvalues --   -0.72337  -0.71585  -0.70309  -0.69024  -0.68412
 Alpha  occ. eigenvalues --   -0.64755  -0.64000  -0.63392  -0.61862  -0.60874
 Alpha  occ. eigenvalues --   -0.59105  -0.58869  -0.56795  -0.55060  -0.53298
 Alpha  occ. eigenvalues --   -0.53140  -0.51760  -0.51054  -0.49879  -0.49439
 Alpha  occ. eigenvalues --   -0.48409  -0.47564  -0.46993  -0.46598  -0.46034
 Alpha  occ. eigenvalues --   -0.44951  -0.44300  -0.44103  -0.43326  -0.42870
 Alpha  occ. eigenvalues --   -0.42486  -0.42343  -0.42117  -0.41808  -0.41606
 Alpha  occ. eigenvalues --   -0.41003  -0.40787  -0.40517  -0.40113  -0.40012
 Alpha  occ. eigenvalues --   -0.39397  -0.39173  -0.39011  -0.38596  -0.38394
 Alpha  occ. eigenvalues --   -0.37727  -0.37620  -0.37260  -0.36358  -0.35963
 Alpha  occ. eigenvalues --   -0.35799  -0.35426  -0.35291  -0.34697  -0.34498
 Alpha  occ. eigenvalues --   -0.33857  -0.33640  -0.32989  -0.32727  -0.32331
 Alpha  occ. eigenvalues --   -0.31635  -0.31342  -0.30923  -0.28274  -0.27439
 Alpha  occ. eigenvalues --   -0.25108  -0.24505  -0.24362  -0.23402  -0.22704
 Alpha virt. eigenvalues --   -0.04182  -0.01630   0.01073   0.01946   0.04978
 Alpha virt. eigenvalues --    0.06976   0.08001   0.08709   0.09043   0.10187
 Alpha virt. eigenvalues --    0.10471   0.10828   0.10996   0.11379   0.12235

 Mulliken atomic charges:
              1
     1  C   -0.194186
     2  C    0.197571
     3  C   -0.197698
     4  C    0.307451
     5  C   -0.027969
     6  C   -0.328668
     7  C    0.199701
     8  C    0.402140
     9  C   -0.097677
    10  C    0.401091
    11  C    0.429072
    12  O   -0.465397
    13  C   -0.165442
    14  C   -0.243642
    15  C   -0.455704
    16  O   -0.467408
    17  C   -0.154915
    18  C    0.297943
    19  O   -0.535599
    20  C   -0.309115
    21  O   -0.673853
    22  C   -0.329579
    23  C    0.117060
    24  O   -0.588659
    25  C    0.183837
    26  C   -0.518798
    27  C   -0.394944
    28  C   -0.467194
    29  C   -0.461728
    30  H    0.148708
    31  H    0.150002
    32  C   -0.521330
    33  H    0.125563
    34  H    0.166422
    35  H    0.173997
    36  H    0.147217
    37  H    0.122808
    38  H    0.154615
    39  H    0.162555
    40  H    0.161337
    41  H    0.146021
    42  H    0.161666
    43  H    0.151490
    44  H    0.429855
    45  H    0.188691
    46  H    0.149081
    47  H    0.135482
    48  H    0.153925
    49  H    0.160516
    50  H    0.169924
    51  H    0.136397
    52  H    0.145380
    53  H    0.155735
    54  H    0.145498
    55  H    0.196091
    56  H    0.161924
    57  H    0.163597
    58  H    0.151972
    59  H    0.158361
    60  H    0.155389
    61  H    0.155337
    62  C   -0.452224
    63  H    0.156702
    64  H    0.138997
    65  H    0.134610
 Sum of Mulliken atomic charges =   0.00000

 Dipole moment (field-independent basis, Debye):
    X=             -2.8340    Y=              5.5364    Z=             -0.6259  Tot=              6.2510
 Quadrupole moment (field-independent basis, Debye-Ang):
   XX=           -175.9677   YY=           -184.6715   ZZ=           -186.0240
   XY=              8.4574   XZ=             -9.8109   YZ=              3.6606

 Normal termination of Gaussian 09 at Wed Mar 24 14:21:43 2021.
