 Gaussian 09, Revision B.01,
 Gaussian 09:  EM64L-G09RevB.01 12-Aug-2010

 ---------------------------------------
 # opt rb3lyp/6-31g(d) geom=connectivity
 ---------------------------------------

 -------------------
 Title Card Required
 -------------------
 Symbolic Z-matrix:
 Charge =  0 Multiplicity = 1

 SCF Done:  E(RB3LYP) =  -1387.30179404     A.U. after   16 cycles
 SCF Done:  E(RB3LYP) =  -1387.31466172     A.U. after   13 cycles
 SCF Done:  E(RB3LYP) =  -1387.31650786     A.U. after   13 cycles
 SCF Done:  E(RB3LYP) =  -1387.31521935     A.U. after   13 cycles
 SCF Done:  E(RB3LYP) =  -1387.31712152     A.U. after   13 cycles
 SCF Done:  E(RB3LYP) =  -1387.31748990     A.U. after   12 cycles
 SCF Done:  E(RB3LYP) =  -1387.31715781     A.U. after   13 cycles
 SCF Done:  E(RB3LYP) =  -1387.31776517     A.U. after   13 cycles
 SCF Done:  E(RB3LYP) =  -1387.31780742     A.U. after   12 cycles
 SCF Done:  E(RB3LYP) =  -1387.31782860     A.U. after   10 cycles
 SCF Done:  E(RB3LYP) =  -1387.31730893     A.U. after   14 cycles
 SCF Done:  E(RB3LYP) =  -1387.31735753     A.U. after   13 cycles
 SCF Done:  E(RB3LYP) =  -1387.31762352     A.U. after   13 cycles
 SCF Done:  E(RB3LYP) =  -1387.31761238     A.U. after   13 cycles
 SCF Done:  E(RB3LYP) =  -1387.31826733     A.U. after   12 cycles
 SCF Done:  E(RB3LYP) =  -1387.31827964     A.U. after   10 cycles
 SCF Done:  E(RB3LYP) =  -1387.31828182     A.U. after   10 cycles
 SCF Done:  E(RB3LYP) =  -1387.31828235     A.U. after    8 cycles
 SCF Done:  E(RB3LYP) =  -1387.31828252     A.U. after    8 cycles
 SCF Done:  E(RB3LYP) =  -1387.31828250     A.U. after    6 cycles
 Optimization completed.
    -- Stationary point found.

                         Standard orientation:
 ---------------------------------------------------------------------
 Center     Atomic      Atomic             Coordinates (Angstroms)
 Number     Number       Type             X           Y           Z
 ---------------------------------------------------------------------
      1          6           0       -0.654203   -0.445593    3.300331
      2          6           0       -0.906434    0.838620    3.021645
      3          6           0       -1.462228    1.256602    1.676188
      4          6           0       -1.422830    0.169411    0.557978
      5          6           0       -0.730527   -1.184613    0.857347
      6          6           0       -0.889996   -1.582416    2.344561
      7          6           0       -0.813935    0.896515   -0.667944
      8          6           0        0.698348    0.824095   -0.706242
      9          6           0        1.438514   -0.222778   -0.262001
     10          6           0        0.773425   -1.291839    0.482109
     11          6           0        2.953367   -0.179613   -0.369344
     12          8           0        3.540843    0.777327    0.106386
     13          6           0        3.728211   -1.276468   -1.108620
     14          6           0        4.492367   -2.200244   -0.120225
     15          6           0        2.877948   -2.093435   -2.091270
     16          8           0        1.384284   -2.291233    0.857883
     17          6           0       -0.971387    2.417215   -0.452212
     18          6           0        0.168860    3.005746   -1.318556
     19          8           0        1.205427    1.939221   -1.240266
     20          6           0       -0.793727    2.528718    1.076365
     21          8           0       -1.294170    0.389623   -1.899144
     22          6           0       -1.536281   -2.155073   -0.044585
     23          6           0       -2.962247   -1.586905    0.037528
     24          8           0       -2.790884   -0.168854    0.215369
     25          6           0       -3.858030   -1.894076   -1.144679
     26          6           0       -3.978777   -3.356570   -1.495575
     27          6           0       -4.534569   -0.940029   -1.792973
     28          6           0       -0.221849    3.171138   -2.788792
     29          6           0        0.829290    4.274180   -0.785298
     30          1           0       -1.953484    2.776409   -0.775429
     31          1           0       -2.531525    1.477057    1.805861
     32          6           0       -0.722279    1.927379    4.049697
     33          1           0       -0.289948   -0.708909    4.292452
     34          1           0       -1.898563   -1.989769    2.512001
     35          1           0       -0.194010   -2.403501    2.538628
     36          1           0        4.484150   -0.714714   -1.676159
     37          1           0        3.764939   -2.664535    0.553065
     38          1           0        4.930054   -3.011479   -0.718533
     39          1           0        3.527671   -2.730438   -2.702316
     40          1           0        2.307279   -1.450246   -2.770705
     41          1           0        2.176148   -2.743210   -1.559993
     42          1           0        0.272236    2.529549    1.329022
     43          1           0       -1.221543    3.448924    1.484313
     44          1           0       -2.238205    0.188916   -1.747533
     45          1           0       -1.173298   -2.114954   -1.076337
     46          1           0       -1.463757   -3.186725    0.309765
     47          1           0       -3.459871   -1.979524    0.939593
     48          1           0       -4.301457   -3.946243   -0.626485
     49          1           0       -4.706343   -3.511503   -2.297192
     50          1           0       -3.018264   -3.775530   -1.821373
     51          1           0       -5.184795   -1.181771   -2.629409
     52          1           0       -4.481242    0.101933   -1.494172
     53          1           0        0.666811    3.402305   -3.385068
     54          1           0       -0.930131    4.000849   -2.895882
     55          1           0       -0.684529    2.260907   -3.174148
     56          1           0        1.222294    4.137683    0.224439
     57          1           0        1.661147    4.564251   -1.434717
     58          1           0        0.103125    5.094770   -0.772522
     59          1           0       -0.389424    1.513504    5.006443
     60          1           0        0.017034    2.673960    3.732769
     61          1           0       -1.662333    2.470155    4.224406
     62          6           0        5.601338   -1.513115    0.681758
     63          1           0        6.097955   -2.234813    1.341290
     64          1           0        6.363728   -1.083399    0.020139
     65          1           0        5.209922   -0.699689    1.298809
 ---------------------------------------------------------------------

 The electronic state is 1-A.
 Alpha  occ. eigenvalues --  -19.19429 -19.16631 -19.15771 -19.12737 -19.12507
 Alpha  occ. eigenvalues --  -10.27235 -10.27181 -10.26549 -10.26513 -10.25719
 Alpha  occ. eigenvalues --  -10.25700 -10.25325 -10.21344 -10.20962 -10.20544
 Alpha  occ. eigenvalues --  -10.20261 -10.19827 -10.19752 -10.19439 -10.19314
 Alpha  occ. eigenvalues --  -10.19149 -10.18759 -10.18732 -10.18477 -10.18397
 Alpha  occ. eigenvalues --  -10.18076 -10.18050 -10.18046 -10.16543 -10.16320
 Alpha  occ. eigenvalues --  -10.15260  -1.09112  -1.05993  -1.03001  -1.02556
 Alpha  occ. eigenvalues --   -1.02285  -0.86699  -0.83569  -0.82440  -0.81345
 Alpha  occ. eigenvalues --   -0.80215  -0.78963  -0.76559  -0.74274  -0.73114
 Alpha  occ. eigenvalues --   -0.71744  -0.71029  -0.69836  -0.69617  -0.67911
 Alpha  occ. eigenvalues --   -0.64916  -0.63530  -0.63144  -0.61589  -0.60563
 Alpha  occ. eigenvalues --   -0.59300  -0.58596  -0.56965  -0.55197  -0.53896
 Alpha  occ. eigenvalues --   -0.52981  -0.52336  -0.50681  -0.50352  -0.49140
 Alpha  occ. eigenvalues --   -0.47815  -0.47133  -0.46611  -0.45896  -0.45607
 Alpha  occ. eigenvalues --   -0.44978  -0.44329  -0.43812  -0.43367  -0.43031
 Alpha  occ. eigenvalues --   -0.42906  -0.42055  -0.42018  -0.41774  -0.41291
 Alpha  occ. eigenvalues --   -0.40814  -0.40567  -0.40214  -0.39969  -0.39782
 Alpha  occ. eigenvalues --   -0.39017  -0.38779  -0.38713  -0.38075  -0.37527
 Alpha  occ. eigenvalues --   -0.37480  -0.37249  -0.37076  -0.36765  -0.36382
 Alpha  occ. eigenvalues --   -0.36165  -0.35562  -0.34905  -0.34611  -0.34379
 Alpha  occ. eigenvalues --   -0.33888  -0.33435  -0.32847  -0.32491  -0.31964
 Alpha  occ. eigenvalues --   -0.31504  -0.31031  -0.30206  -0.28282  -0.26437
 Alpha  occ. eigenvalues --   -0.26024  -0.24641  -0.24033  -0.23370  -0.22463
 Alpha virt. eigenvalues --   -0.04672  -0.01139   0.00862   0.02267   0.05280
 Alpha virt. eigenvalues --    0.07330   0.08258   0.08948   0.09420   0.10013
 Alpha virt. eigenvalues --    0.10788   0.11117   0.11498   0.12219   0.12543

 Mulliken atomic charges:
              1
     1  C   -0.188074
     2  C    0.194139
     3  C   -0.189434
     4  C    0.321972
     5  C   -0.051340
     6  C   -0.332680
     7  C    0.198289
     8  C    0.402892
     9  C   -0.095985
    10  C    0.429558
    11  C    0.413949
    12  O   -0.445211
    13  C   -0.137140
    14  C   -0.268125
    15  C   -0.473937
    16  O   -0.518981
    17  C   -0.166058
    18  C    0.303803
    19  O   -0.516330
    20  C   -0.325848
    21  O   -0.662000
    22  C   -0.326569
    23  C    0.106746
    24  O   -0.589802
    25  C    0.186893
    26  C   -0.519480
    27  C   -0.408922
    28  C   -0.469081
    29  C   -0.457179
    30  H    0.142670
    31  H    0.166276
    32  C   -0.520048
    33  H    0.122791
    34  H    0.145141
    35  H    0.183789
    36  H    0.148206
    37  H    0.175421
    38  H    0.126588
    39  H    0.141381
    40  H    0.144969
    41  H    0.165310
    42  H    0.174587
    43  H    0.150930
    44  H    0.416154
    45  H    0.173074
    46  H    0.165015
    47  H    0.145730
    48  H    0.159067
    49  H    0.161942
    50  H    0.169746
    51  H    0.139777
    52  H    0.153604
    53  H    0.158055
    54  H    0.142743
    55  H    0.191212
    56  H    0.168391
    57  H    0.165834
    58  H    0.147834
    59  H    0.158006
    60  H    0.160022
    61  H    0.150024
    62  C   -0.445438
    63  H    0.132518
    64  H    0.135295
    65  H    0.167323
 Sum of Mulliken atomic charges =   0.00000

 Dipole moment (field-independent basis, Debye):
    X=             -5.0395    Y=              1.3218    Z=             -0.4453  Tot=              5.2290
 Quadrupole moment (field-independent basis, Debye-Ang):
   XX=           -192.2157   YY=           -171.9002   ZZ=           -181.1113
   XY=              1.1822   XZ=             -2.0236   YZ=              1.5433

 Normal termination of Gaussian 09 at Wed Mar 24 18:58:12 2021.
