 Gaussian 09, Revision B.01,
 Gaussian 09:  EM64L-G09RevB.01 12-Aug-2010

 ---------------------------------------
 # opt rb3lyp/6-31g(d) geom=connectivity
 ---------------------------------------

 -------------------
 Title Card Required
 -------------------
 Symbolic Z-matrix:
 Charge =  0 Multiplicity = 1

 SCF Done:  E(RB3LYP) =  -1387.29997298     A.U. after   16 cycles
 SCF Done:  E(RB3LYP) =  -1387.31273573     A.U. after   13 cycles
 SCF Done:  E(RB3LYP) =  -1387.31447508     A.U. after   13 cycles
 SCF Done:  E(RB3LYP) =  -1387.31242386     A.U. after   13 cycles
 SCF Done:  E(RB3LYP) =  -1387.31500515     A.U. after   13 cycles
 SCF Done:  E(RB3LYP) =  -1387.31537823     A.U. after   12 cycles
 SCF Done:  E(RB3LYP) =  -1387.31533968     A.U. after   12 cycles
 SCF Done:  E(RB3LYP) =  -1387.31558706     A.U. after   11 cycles
 SCF Done:  E(RB3LYP) =  -1387.31565705     A.U. after   11 cycles
 SCF Done:  E(RB3LYP) =  -1387.31569570     A.U. after   11 cycles
 SCF Done:  E(RB3LYP) =  -1387.31570180     A.U. after   10 cycles
 SCF Done:  E(RB3LYP) =  -1387.31570535     A.U. after    9 cycles
 SCF Done:  E(RB3LYP) =  -1387.31570608     A.U. after    8 cycles
 SCF Done:  E(RB3LYP) =  -1387.31570639     A.U. after    8 cycles
 SCF Done:  E(RB3LYP) =  -1387.31570648     A.U. after    7 cycles
 SCF Done:  E(RB3LYP) =  -1387.31570661     A.U. after    7 cycles
 Optimization completed.
    -- Stationary point found.

                         Standard orientation:
 ---------------------------------------------------------------------
 Center     Atomic      Atomic             Coordinates (Angstroms)
 Number     Number       Type             X           Y           Z
 ---------------------------------------------------------------------
      1          6           0       -1.980213    0.097889    2.826884
      2          6           0       -2.573940    1.056658    2.106243
      3          6           0       -2.050631    1.403338    0.731896
      4          6           0       -1.334134    0.251512   -0.047404
      5          6           0       -0.838390   -0.972400    0.799971
      6          6           0       -0.787912   -0.674374    2.331161
      7          6           0       -0.218544    0.976541   -0.867225
      8          6           0        1.159429    0.803693   -0.257267
      9          6           0        1.607690   -0.358024    0.260133
     10          6           0        0.611991   -1.422718    0.472963
     11          6           0        3.003222   -0.553630    0.827274
     12          8           0        3.155218   -0.459589    2.032555
     13          6           0        4.153841   -0.925987   -0.102465
     14          6           0        4.106670   -2.447032   -0.410690
     15          6           0        4.177716   -0.106082   -1.401833
     16          8           0        0.917375   -2.605157    0.564069
     17          6           0       -0.403956    2.500922   -0.691415
     18          6           0        1.031591    3.054574   -0.846347
     19          8           0        1.872261    1.939890   -0.338610
     20          6           0       -1.053352    2.591278    0.702941
     21          8           0       -0.164722    0.531456   -2.208435
     22          6           0       -1.848124   -2.099810    0.454911
     23          6           0       -2.918117   -1.434945   -0.413352
     24          8           0       -2.238682   -0.304736   -1.013014
     25          6           0       -3.584435   -2.235929   -1.510457
     26          6           0       -4.472571   -1.438991   -2.435329
     27          6           0       -3.452832   -3.561087   -1.616164
     28          6           0        1.406646    3.286014   -2.312454
     29          6           0        1.376158    4.268878    0.010532
     30          1           0       -1.069420    2.903890   -1.460763
     31          1           0       -2.897390    1.681541    0.089046
     32          6           0       -3.746105    1.856280    2.613173
     33          1           0       -2.342911   -0.127430    3.828850
     34          1           0       -0.700049   -1.632918    2.853476
     35          1           0        0.137742   -0.128868    2.567065
     36          1           0        5.064386   -0.723698    0.476053
     37          1           0        4.888481   -2.646010   -1.156519
     38          1           0        3.148422   -2.689214   -0.885726
     39          1           0        3.292572   -0.307035   -2.015545
     40          1           0        5.062308   -0.374302   -1.990515
     41          1           0        4.212834    0.969268   -1.203233
     42          1           0       -0.303722    2.459287    1.492245
     43          1           0       -1.546814    3.551298    0.883242
     44          1           0       -0.971246   -0.010908   -2.325489
     45          1           0       -1.320744   -2.888924   -0.085332
     46          1           0       -2.284100   -2.548543    1.351191
     47          1           0       -3.711877   -1.024943    0.232924
     48          1           0       -3.902147   -0.667675   -2.965092
     49          1           0       -5.257360   -0.915487   -1.871784
     50          1           0       -4.955998   -2.083280   -3.175489
     51          1           0       -3.982896   -4.115393   -2.386529
     52          1           0       -2.830177   -4.146050   -0.947200
     53          1           0        1.163106    2.411384   -2.920078
     54          1           0        0.858503    4.148660   -2.708413
     55          1           0        2.478482    3.493197   -2.396448
     56          1           0        1.203737    4.079545    1.072911
     57          1           0        0.768246    5.127631   -0.294820
     58          1           0        2.430065    4.533981   -0.120784
     59          1           0       -4.039958    1.544586    3.620428
     60          1           0       -3.515281    2.930065    2.647625
     61          1           0       -4.618228    1.746583    1.953455
     62          6           0        4.313487   -3.350385    0.807519
     63          1           0        4.330644   -4.403042    0.502681
     64          1           0        5.262212   -3.130184    1.312033
     65          1           0        3.505872   -3.229004    1.534806
 ---------------------------------------------------------------------

 The electronic state is 1-A.
 Alpha  occ. eigenvalues --  -19.19420 -19.16989 -19.14937 -19.13176 -19.13062
 Alpha  occ. eigenvalues --  -10.27103 -10.26878 -10.26617 -10.26451 -10.26083
 Alpha  occ. eigenvalues --  -10.25845 -10.24857 -10.21358 -10.20457 -10.20425
 Alpha  occ. eigenvalues --  -10.20313 -10.20178 -10.19772 -10.19385 -10.19070
 Alpha  occ. eigenvalues --  -10.19037 -10.18770 -10.18678 -10.18575 -10.18557
 Alpha  occ. eigenvalues --  -10.18327 -10.18256 -10.18243 -10.17182 -10.16773
 Alpha  occ. eigenvalues --  -10.15402  -1.08799  -1.06344  -1.03391  -1.02602
 Alpha  occ. eigenvalues --   -1.02108  -0.86824  -0.83647  -0.82098  -0.81286
 Alpha  occ. eigenvalues --   -0.80011  -0.79524  -0.76641  -0.73992  -0.72928
 Alpha  occ. eigenvalues --   -0.72047  -0.71336  -0.70090  -0.69121  -0.68158
 Alpha  occ. eigenvalues --   -0.64798  -0.63834  -0.63467  -0.61616  -0.60607
 Alpha  occ. eigenvalues --   -0.58976  -0.58725  -0.56755  -0.55444  -0.53879
 Alpha  occ. eigenvalues --   -0.52788  -0.51718  -0.51016  -0.49872  -0.49340
 Alpha  occ. eigenvalues --   -0.47982  -0.46972  -0.46780  -0.45932  -0.45788
 Alpha  occ. eigenvalues --   -0.45024  -0.44527  -0.44194  -0.43490  -0.43068
 Alpha  occ. eigenvalues --   -0.42821  -0.42240  -0.42143  -0.41461  -0.41305
 Alpha  occ. eigenvalues --   -0.40887  -0.40483  -0.40174  -0.40089  -0.39756
 Alpha  occ. eigenvalues --   -0.39351  -0.39047  -0.38886  -0.38381  -0.38040
 Alpha  occ. eigenvalues --   -0.37670  -0.37390  -0.37000  -0.36888  -0.36188
 Alpha  occ. eigenvalues --   -0.35588  -0.35308  -0.35144  -0.34760  -0.34167
 Alpha  occ. eigenvalues --   -0.33605  -0.33244  -0.32940  -0.32571  -0.32320
 Alpha  occ. eigenvalues --   -0.32012  -0.31181  -0.30675  -0.28045  -0.27262
 Alpha  occ. eigenvalues --   -0.25841  -0.24561  -0.24246  -0.23437  -0.22577
 Alpha virt. eigenvalues --   -0.03858  -0.01409   0.00963   0.01238   0.04000
 Alpha virt. eigenvalues --    0.06929   0.08152   0.08912   0.09200   0.10182
 Alpha virt. eigenvalues --    0.10654   0.11358   0.11583   0.12071   0.12239

 Mulliken atomic charges:
              1
     1  C   -0.193530
     2  C    0.198066
     3  C   -0.197310
     4  C    0.315542
     5  C   -0.027030
     6  C   -0.333050
     7  C    0.197630
     8  C    0.421495
     9  C   -0.111471
    10  C    0.408897
    11  C    0.420334
    12  O   -0.445353
    13  C   -0.150077
    14  C   -0.261433
    15  C   -0.469687
    16  O   -0.496827
    17  C   -0.154483
    18  C    0.298106
    19  O   -0.537070
    20  C   -0.309457
    21  O   -0.671193
    22  C   -0.330258
    23  C    0.102378
    24  O   -0.585378
    25  C    0.188597
    26  C   -0.506320
    27  C   -0.394661
    28  C   -0.466688
    29  C   -0.460450
    30  H    0.146553
    31  H    0.145812
    32  C   -0.521219
    33  H    0.125533
    34  H    0.164931
    35  H    0.180001
    36  H    0.144467
    37  H    0.130818
    38  H    0.159410
    39  H    0.159886
    40  H    0.143403
    41  H    0.157091
    42  H    0.165162
    43  H    0.150534
    44  H    0.421201
    45  H    0.182681
    46  H    0.151165
    47  H    0.136823
    48  H    0.168762
    49  H    0.151609
    50  H    0.153832
    51  H    0.139130
    52  H    0.152556
    53  H    0.194569
    54  H    0.143991
    55  H    0.156069
    56  H    0.163283
    57  H    0.150191
    58  H    0.163083
    59  H    0.158491
    60  H    0.155558
    61  H    0.153713
    62  C   -0.445740
    63  H    0.137316
    64  H    0.136355
    65  H    0.173658
 Sum of Mulliken atomic charges =   0.00000

 Dipole moment (field-independent basis, Debye):
    X=             -4.2789    Y=              3.7216    Z=             -1.3012  Tot=              5.8182
 Quadrupole moment (field-independent basis, Debye-Ang):
   XX=           -180.5625   YY=           -176.8826   ZZ=           -188.2151
   XY=              3.5549   XZ=             -8.7242   YZ=              1.7274

 Normal termination of Gaussian 09 at Wed Mar 24 16:17:25 2021.
