 Gaussian 09, Revision B.01,
 Gaussian 09:  EM64L-G09RevB.01 12-Aug-2010

 ---------------------------------------
 # opt rb3lyp/6-31g(d) geom=connectivity
 ---------------------------------------

 -------------------
 Title Card Required
 -------------------
 Symbolic Z-matrix:
 Charge =  0 Multiplicity = 1

 SCF Done:  E(RB3LYP) =  -1387.30007951     A.U. after   16 cycles
 SCF Done:  E(RB3LYP) =  -1387.31282871     A.U. after   16 cycles
 SCF Done:  E(RB3LYP) =  -1387.31526476     A.U. after   13 cycles
 SCF Done:  E(RB3LYP) =  -1387.31565227     A.U. after   13 cycles
 SCF Done:  E(RB3LYP) =  -1387.31552052     A.U. after   13 cycles
 SCF Done:  E(RB3LYP) =  -1387.31632120     A.U. after   13 cycles
 SCF Done:  E(RB3LYP) =  -1387.31656637     A.U. after   12 cycles
 SCF Done:  E(RB3LYP) =  -1387.31674073     A.U. after   13 cycles
 SCF Done:  E(RB3LYP) =  -1387.31671584     A.U. after   12 cycles
 SCF Done:  E(RB3LYP) =  -1387.31680035     A.U. after   11 cycles
 SCF Done:  E(RB3LYP) =  -1387.31680703     A.U. after   10 cycles
 SCF Done:  E(RB3LYP) =  -1387.31681056     A.U. after   10 cycles
 SCF Done:  E(RB3LYP) =  -1387.31681124     A.U. after    8 cycles
 SCF Done:  E(RB3LYP) =  -1387.31681206     A.U. after    8 cycles
 SCF Done:  E(RB3LYP) =  -1387.31681210     A.U. after    7 cycles
 SCF Done:  E(RB3LYP) =  -1387.31681216     A.U. after    7 cycles
 SCF Done:  E(RB3LYP) =  -1387.31681216     A.U. after    7 cycles
 Optimization completed.
    -- Stationary point found.

                         Standard orientation:
 ---------------------------------------------------------------------
 Center     Atomic      Atomic             Coordinates (Angstroms)
 Number     Number       Type             X           Y           Z
 ---------------------------------------------------------------------
      1          6           0       -1.776341    1.026078    2.913935
      2          6           0       -2.271699    1.920991    2.050965
      3          6           0       -1.911226    1.837869    0.585980
      4          6           0       -1.592154    0.408972    0.040225
      5          6           0       -1.246184   -0.687576    1.092733
      6          6           0       -0.874731   -0.102129    2.490761
      7          6           0       -0.463830    0.650293   -1.028706
      8          6           0        0.922872    0.272990   -0.535763
      9          6           0        1.180032   -0.835001    0.203306
     10          6           0       -0.018163   -1.563198    0.703824
     11          6           0        2.532136   -1.313485    0.633291
     12          8           0        2.653951   -1.896890    1.701071
     13          6           0        3.744424   -1.091292   -0.279740
     14          6           0        4.690261    0.000629    0.292243
     15          6           0        4.458540   -2.435335   -0.504626
     16          8           0       -0.012519   -2.759558    0.935032
     17          6           0       -0.292824    2.176597   -1.204845
     18          6           0        1.185741    2.321809   -1.624458
     19          8           0        1.833606    1.171762   -0.936068
     20          6           0       -0.696073    2.713243    0.180984
     21          8           0       -0.706361   -0.070635   -2.216002
     22          6           0       -2.535042   -1.526959    1.183407
     23          6           0       -3.290153   -1.308225   -0.131134
     24          8           0       -2.749056   -0.062128   -0.673476
     25          6           0       -3.247947   -2.374075   -1.215097
     26          6           0       -4.173339   -2.098634   -2.378967
     27          6           0       -2.484506   -3.469339   -1.163792
     28          6           0        1.385428    2.127051   -3.129276
     29          6           0        1.905861    3.570278   -1.126015
     30          1           0       -0.963568    2.555361   -1.981866
     31          1           0       -2.767545    2.175573   -0.012709
     32          6           0       -3.163716    3.059351    2.472531
     33          1           0       -2.013090    1.108563    3.973811
     34          1           0       -0.913282   -0.922311    3.216346
     35          1           0        0.172563    0.231432    2.485288
     36          1           0        3.386617   -0.721548   -1.246043
     37          1           0        4.116749    0.928444    0.410011
     38          1           0        5.443853    0.207908   -0.480629
     39          1           0        4.734294   -2.895705    0.447295
     40          1           0        5.365930   -2.289572   -1.102824
     41          1           0        3.810008   -3.138248   -1.039410
     42          1           0        0.114666    2.571991    0.905987
     43          1           0       -0.938935    3.780357    0.173369
     44          1           0       -1.653090   -0.317475   -2.157818
     45          1           0       -2.292872   -2.570983    1.384243
     46          1           0       -3.149918   -1.157107    2.008901
     47          1           0       -4.347279   -1.091988    0.073361
     48          1           0       -3.972287   -1.119281   -2.831924
     49          1           0       -5.221811   -2.076097   -2.049345
     50          1           0       -4.077968   -2.861253   -3.157313
     51          1           0       -2.502546   -4.192116   -1.976339
     52          1           0       -1.808286   -3.683837   -0.343788
     53          1           0        0.868948    1.229130   -3.476044
     54          1           0        0.987873    2.990539   -3.674750
     55          1           0        2.452738    2.039493   -3.357289
     56          1           0        1.844832    3.668572   -0.039272
     57          1           0        1.463225    4.462888   -1.581512
     58          1           0        2.963080    3.533494   -1.407749
     59          1           0       -3.342217    3.052102    3.552459
     60          1           0       -2.725974    4.032588    2.210308
     61          1           0       -4.136907    3.008914    1.964645
     62          6           0        5.397706   -0.337389    1.609354
     63          1           0        6.009404    0.511663    1.937148
     64          1           0        4.681739   -0.572687    2.401632
     65          1           0        6.063648   -1.200299    1.500668
 ---------------------------------------------------------------------

 The electronic state is 1-A.
 Alpha  occ. eigenvalues --  -19.20124 -19.16731 -19.14980 -19.13072 -19.12003
 Alpha  occ. eigenvalues --  -10.27133 -10.27025 -10.26983 -10.26136 -10.26048
 Alpha  occ. eigenvalues --  -10.25854 -10.24688 -10.21312 -10.20608 -10.20383
 Alpha  occ. eigenvalues --  -10.20310 -10.19827 -10.19637 -10.19536 -10.19460
 Alpha  occ. eigenvalues --  -10.19028 -10.18966 -10.18708 -10.18547 -10.18530
 Alpha  occ. eigenvalues --  -10.18368 -10.18081 -10.17482 -10.17430 -10.16313
 Alpha  occ. eigenvalues --  -10.15780  -1.09411  -1.05809  -1.03366  -1.02015
 Alpha  occ. eigenvalues --   -1.01712  -0.86938  -0.83944  -0.81982  -0.81159
 Alpha  occ. eigenvalues --   -0.79923  -0.79109  -0.76872  -0.74024  -0.73089
 Alpha  occ. eigenvalues --   -0.72116  -0.71190  -0.70351  -0.68687  -0.68042
 Alpha  occ. eigenvalues --   -0.65233  -0.64241  -0.63428  -0.61850  -0.60681
 Alpha  occ. eigenvalues --   -0.59182  -0.58451  -0.56540  -0.54502  -0.53151
 Alpha  occ. eigenvalues --   -0.52879  -0.51801  -0.50651  -0.49797  -0.48996
 Alpha  occ. eigenvalues --   -0.47865  -0.47431  -0.46847  -0.46559  -0.46124
 Alpha  occ. eigenvalues --   -0.44975  -0.44439  -0.44178  -0.43912  -0.43070
 Alpha  occ. eigenvalues --   -0.42722  -0.42298  -0.42044  -0.41585  -0.41289
 Alpha  occ. eigenvalues --   -0.41022  -0.40609  -0.40359  -0.40006  -0.39442
 Alpha  occ. eigenvalues --   -0.39212  -0.38722  -0.38554  -0.38030  -0.37976
 Alpha  occ. eigenvalues --   -0.37603  -0.37305  -0.36985  -0.36395  -0.36278
 Alpha  occ. eigenvalues --   -0.35849  -0.35678  -0.35013  -0.34676  -0.34622
 Alpha  occ. eigenvalues --   -0.33447  -0.33373  -0.33185  -0.32930  -0.32212
 Alpha  occ. eigenvalues --   -0.31324  -0.31238  -0.30780  -0.27443  -0.27249
 Alpha  occ. eigenvalues --   -0.25277  -0.24607  -0.24303  -0.23466  -0.22214
 Alpha virt. eigenvalues --   -0.04563  -0.01757   0.00971   0.01490   0.05545
 Alpha virt. eigenvalues --    0.07553   0.08228   0.08513   0.09533   0.10223
 Alpha virt. eigenvalues --    0.10632   0.10684   0.11097   0.11642   0.12651

 Mulliken atomic charges:
              1
     1  C   -0.197063
     2  C    0.204095
     3  C   -0.200148
     4  C    0.322574
     5  C   -0.051087
     6  C   -0.324319
     7  C    0.203582
     8  C    0.390153
     9  C   -0.088619
    10  C    0.417835
    11  C    0.429841
    12  O   -0.469249
    13  C   -0.145317
    14  C   -0.263796
    15  C   -0.453353
    16  O   -0.470849
    17  C   -0.155924
    18  C    0.298427
    19  O   -0.531710
    20  C   -0.308315
    21  O   -0.670219
    22  C   -0.333103
    23  C    0.094799
    24  O   -0.589856
    25  C    0.180696
    26  C   -0.513605
    27  C   -0.404354
    28  C   -0.467763
    29  C   -0.462600
    30  H    0.146767
    31  H    0.150014
    32  C   -0.520884
    33  H    0.125594
    34  H    0.168687
    35  H    0.168708
    36  H    0.135904
    37  H    0.139478
    38  H    0.129196
    39  H    0.173261
    40  H    0.135568
    41  H    0.150052
    42  H    0.159043
    43  H    0.151051
    44  H    0.430431
    45  H    0.190478
    46  H    0.150949
    47  H    0.135038
    48  H    0.159792
    49  H    0.153598
    50  H    0.157206
    51  H    0.136543
    52  H    0.186889
    53  H    0.196330
    54  H    0.145711
    55  H    0.156555
    56  H    0.161589
    57  H    0.152807
    58  H    0.164492
    59  H    0.157822
    60  H    0.154019
    61  H    0.156884
    62  C   -0.446536
    63  H    0.130911
    64  H    0.171046
    65  H    0.144257
 Sum of Mulliken atomic charges =   0.00000

 Dipole moment (field-independent basis, Debye):
    X=             -3.0314    Y=              5.7116    Z=             -1.7143  Tot=              6.6896
 Quadrupole moment (field-independent basis, Debye-Ang):
   XX=           -179.5618   YY=           -183.6325   ZZ=           -184.0920
   XY=              6.5560   XZ=             -7.9652   YZ=              4.4086

 Normal termination of Gaussian 09 at Wed Mar 24 14:23:08 2021.
