 Gaussian 09, Revision B.01,
 Gaussian 09:  EM64L-G09RevB.01 12-Aug-2010

 ---------------------------------------
 # opt rb3lyp/6-31g(d) geom=connectivity
 ---------------------------------------

 -------------------
 Title Card Required
 -------------------
 Symbolic Z-matrix:
 Charge =  0 Multiplicity = 1

 SCF Done:  E(RB3LYP) =  -1387.30272987     A.U. after   15 cycles
 SCF Done:  E(RB3LYP) =  -1387.31519296     A.U. after   13 cycles
 SCF Done:  E(RB3LYP) =  -1387.31762634     A.U. after   13 cycles
 SCF Done:  E(RB3LYP) =  -1387.31817716     A.U. after   13 cycles
 SCF Done:  E(RB3LYP) =  -1387.31819148     A.U. after   15 cycles
 SCF Done:  E(RB3LYP) =  -1387.31975775     A.U. after   13 cycles
 SCF Done:  E(RB3LYP) =  -1387.31965167     A.U. after   12 cycles
 SCF Done:  E(RB3LYP) =  -1387.32049348     A.U. after   13 cycles
 SCF Done:  E(RB3LYP) =  -1387.32079598     A.U. after   13 cycles
 SCF Done:  E(RB3LYP) =  -1387.32104531     A.U. after   13 cycles
 SCF Done:  E(RB3LYP) =  -1387.32160541     A.U. after   12 cycles
 SCF Done:  E(RB3LYP) =  -1387.32163631     A.U. after   10 cycles
 SCF Done:  E(RB3LYP) =  -1387.32173515     A.U. after   12 cycles
 SCF Done:  E(RB3LYP) =  -1387.32176614     A.U. after   11 cycles
 SCF Done:  E(RB3LYP) =  -1387.32177827     A.U. after   10 cycles
 SCF Done:  E(RB3LYP) =  -1387.32178043     A.U. after   10 cycles
 SCF Done:  E(RB3LYP) =  -1387.32178122     A.U. after    8 cycles
 SCF Done:  E(RB3LYP) =  -1387.32178132     A.U. after    7 cycles
 SCF Done:  E(RB3LYP) =  -1387.32178139     A.U. after    6 cycles
 SCF Done:  E(RB3LYP) =  -1387.32178138     A.U. after    7 cycles
 Optimization completed.
    -- Stationary point found.

                         Standard orientation:
 ---------------------------------------------------------------------
 Center     Atomic      Atomic             Coordinates (Angstroms)
 Number     Number       Type             X           Y           Z
 ---------------------------------------------------------------------
      1          6           0       -2.361947    0.453285    2.687593
      2          6           0       -3.055333    1.113211    1.751745
      3          6           0       -2.478434    1.268902    0.362984
      4          6           0       -1.545038    0.111194   -0.123387
      5          6           0       -0.969149   -0.823058    0.980615
      6          6           0       -1.026008   -0.180926    2.400692
      7          6           0       -0.451803    0.832958   -0.981874
      8          6           0        0.883869    0.955816   -0.262750
      9          6           0        1.445215   -0.075766    0.438716
     10          6           0        0.531430   -1.196967    0.744656
     11          6           0        2.869137    0.001448    0.920815
     12          8           0        3.392289    1.096638    1.072936
     13          6           0        3.653899   -1.287820    1.167418
     14          6           0        3.932318   -2.005106   -0.183041
     15          6           0        4.928622   -1.004957    1.969659
     16          8           0        0.905430   -2.341591    0.977028
     17          6           0       -0.843738    2.319316   -1.116050
     18          6           0        0.521357    3.026887   -1.262711
     19          8           0        1.435338    2.140819   -0.491037
     20          6           0       -1.645696    2.566245    0.175064
     21          8           0       -0.218239    0.166035   -2.206517
     22          6           0       -1.873452   -2.074056    0.918099
     23          6           0       -2.639813   -2.006396   -0.419750
     24          8           0       -2.257706   -0.743238   -1.026017
     25          6           0       -2.375726   -3.137140   -1.393178
     26          6           0       -0.950375   -3.396114   -1.816432
     27          6           0       -3.400395   -3.877109   -1.828796
     28          6           0        1.018907    3.044343   -2.709936
     29          6           0        0.640773    4.404865   -0.619929
     30          1           0       -1.468114    2.476862   -2.000570
     31          1           0       -3.296139    1.294755   -0.369391
     32          6           0       -4.386990    1.763518    2.020852
     33          1           0       -2.756875    0.369682    3.698864
     34          1           0       -0.803221   -0.963166    3.135253
     35          1           0       -0.224011    0.563044    2.503655
     36          1           0        3.008028   -1.965928    1.734704
     37          1           0        4.422976   -2.960215    0.047561
     38          1           0        2.972027   -2.261053   -0.643612
     39          1           0        5.491664   -1.933610    2.120281
     40          1           0        4.688392   -0.587919    2.953383
     41          1           0        5.573997   -0.282142    1.464211
     42          1           0       -2.276418    3.458978    0.123168
     43          1           0       -0.974747    2.695851    1.032759
     44          1           0       -1.019793   -0.383199   -2.334901
     45          1           0       -2.585705   -2.068310    1.746772
     46          1           0       -1.258217   -2.971159    1.010236
     47          1           0       -3.719178   -1.956783   -0.233773
     48          1           0       -0.484568   -2.497925   -2.237170
     49          1           0       -0.324383   -3.690755   -0.965872
     50          1           0       -0.903930   -4.189484   -2.567916
     51          1           0       -4.423295   -3.679399   -1.516873
     52          1           0       -3.254786   -4.713215   -2.508120
     53          1           0        0.936547    2.053935   -3.163446
     54          1           0        2.064682    3.366167   -2.740149
     55          1           0        0.424069    3.749630   -3.301602
     56          1           0       -0.025932    5.111457   -1.126405
     57          1           0        1.666800    4.773447   -0.713441
     58          1           0        0.384569    4.382995    0.442174
     59          1           0       -4.704456    1.617530    3.058184
     60          1           0       -4.352436    2.844882    1.828506
     61          1           0       -5.167424    1.355430    1.363703
     62          6           0        4.792686   -1.215777   -1.176783
     63          1           0        5.796874   -1.022924   -0.783823
     64          1           0        4.343625   -0.246190   -1.420802
     65          1           0        4.906580   -1.775346   -2.112451
 ---------------------------------------------------------------------

 The electronic state is 1-A.
 Alpha  occ. eigenvalues --  -19.20016 -19.16934 -19.15439 -19.13570 -19.11567
 Alpha  occ. eigenvalues --  -10.27555 -10.27544 -10.26722 -10.26247 -10.26066
 Alpha  occ. eigenvalues --  -10.25812 -10.24751 -10.21635 -10.20623 -10.20589
 Alpha  occ. eigenvalues --  -10.20395 -10.20109 -10.20065 -10.19832 -10.19239
 Alpha  occ. eigenvalues --  -10.19142 -10.19028 -10.18974 -10.18647 -10.18278
 Alpha  occ. eigenvalues --  -10.18097 -10.17678 -10.17256 -10.16881 -10.15850
 Alpha  occ. eigenvalues --  -10.15497  -1.09659  -1.06283  -1.03527  -1.02376
 Alpha  occ. eigenvalues --   -1.01576  -0.87175  -0.83875  -0.82113  -0.81321
 Alpha  occ. eigenvalues --   -0.80029  -0.78851  -0.76778  -0.73972  -0.73175
 Alpha  occ. eigenvalues --   -0.72170  -0.70776  -0.70164  -0.68914  -0.68266
 Alpha  occ. eigenvalues --   -0.65447  -0.63847  -0.63555  -0.61641  -0.60708
 Alpha  occ. eigenvalues --   -0.59080  -0.58396  -0.56778  -0.54506  -0.53653
 Alpha  occ. eigenvalues --   -0.52731  -0.51753  -0.51176  -0.49933  -0.49222
 Alpha  occ. eigenvalues --   -0.47636  -0.47330  -0.46853  -0.46521  -0.46042
 Alpha  occ. eigenvalues --   -0.45182  -0.44698  -0.44222  -0.43779  -0.43176
 Alpha  occ. eigenvalues --   -0.42737  -0.42492  -0.42468  -0.41339  -0.41060
 Alpha  occ. eigenvalues --   -0.40748  -0.40402  -0.40126  -0.40032  -0.39497
 Alpha  occ. eigenvalues --   -0.39427  -0.38825  -0.38496  -0.37934  -0.37534
 Alpha  occ. eigenvalues --   -0.37318  -0.36920  -0.36782  -0.36527  -0.36101
 Alpha  occ. eigenvalues --   -0.35889  -0.35582  -0.35171  -0.34643  -0.34330
 Alpha  occ. eigenvalues --   -0.33941  -0.33563  -0.33026  -0.32923  -0.32369
 Alpha  occ. eigenvalues --   -0.31595  -0.30801  -0.30433  -0.27824  -0.27606
 Alpha  occ. eigenvalues --   -0.25370  -0.24799  -0.24382  -0.23589  -0.22145
 Alpha virt. eigenvalues --   -0.05164  -0.01028   0.00763   0.01348   0.05576
 Alpha virt. eigenvalues --    0.07067   0.08286   0.08648   0.09522   0.10101
 Alpha virt. eigenvalues --    0.10326   0.10948   0.11065   0.12041   0.12660

 Mulliken atomic charges:
              1
     1  C   -0.197745
     2  C    0.203716
     3  C   -0.203030
     4  C    0.328708
     5  C   -0.030780
     6  C   -0.327799
     7  C    0.186973
     8  C    0.403814
     9  C   -0.070884
    10  C    0.389956
    11  C    0.406562
    12  O   -0.471378
    13  C   -0.159827
    14  C   -0.263906
    15  C   -0.442334
    16  O   -0.498722
    17  C   -0.152806
    18  C    0.291025
    19  O   -0.487001
    20  C   -0.309594
    21  O   -0.665292
    22  C   -0.351775
    23  C    0.096046
    24  O   -0.589378
    25  C    0.223823
    26  C   -0.540398
    27  C   -0.403427
    28  C   -0.468147
    29  C   -0.459603
    30  H    0.147748
    31  H    0.148657
    32  C   -0.521017
    33  H    0.125971
    34  H    0.162190
    35  H    0.165677
    36  H    0.162790
    37  H    0.133689
    38  H    0.153859
    39  H    0.130388
    40  H    0.142184
    41  H    0.161662
    42  H    0.152497
    43  H    0.162636
    44  H    0.430723
    45  H    0.152639
    46  H    0.195066
    47  H    0.130576
    48  H    0.160629
    49  H    0.187909
    50  H    0.152663
    51  H    0.137518
    52  H    0.140523
    53  H    0.193096
    54  H    0.163298
    55  H    0.145007
    56  H    0.149653
    57  H    0.171093
    58  H    0.162738
    59  H    0.158194
    60  H    0.156086
    61  H    0.156984
    62  C   -0.448732
    63  H    0.145996
    64  H    0.154417
    65  H    0.138195
 Sum of Mulliken atomic charges =   0.00000

 Dipole moment (field-independent basis, Debye):
    X=             -5.2669    Y=              2.0464    Z=             -0.4302  Tot=              5.6669
 Quadrupole moment (field-independent basis, Debye-Ang):
   XX=           -188.5561   YY=           -177.0793   ZZ=           -182.3742
   XY=             -5.8351   XZ=             -6.3194   YZ=             -2.8947

 Normal termination of Gaussian 09 at Wed Mar 24 16:35:37 2021.
