 Gaussian 09, Revision B.01,
 Gaussian 09:  EM64L-G09RevB.01 12-Aug-2010

 ---------------------------------------
 # opt rb3lyp/6-31g(d) geom=connectivity
 ---------------------------------------

 -------------------
 Title Card Required
 -------------------
 Symbolic Z-matrix:
 Charge =  0 Multiplicity = 1

 SCF Done:  E(RB3LYP) =  -1387.30384721     A.U. after   16 cycles
 SCF Done:  E(RB3LYP) =  -1387.31623283     A.U. after   13 cycles
 SCF Done:  E(RB3LYP) =  -1387.31882512     A.U. after   14 cycles
 SCF Done:  E(RB3LYP) =  -1387.31899086     A.U. after   14 cycles
 SCF Done:  E(RB3LYP) =  -1387.31981754     A.U. after   14 cycles
 SCF Done:  E(RB3LYP) =  -1387.31952796     A.U. after   13 cycles
 SCF Done:  E(RB3LYP) =  -1387.31973813     A.U. after   14 cycles
 SCF Done:  E(RB3LYP) =  -1387.32029016     A.U. after   13 cycles
 SCF Done:  E(RB3LYP) =  -1387.32032061     A.U. after   12 cycles
 SCF Done:  E(RB3LYP) =  -1387.32033372     A.U. after   10 cycles
 SCF Done:  E(RB3LYP) =  -1387.32033516     A.U. after   11 cycles
 SCF Done:  E(RB3LYP) =  -1387.32033365     A.U. after   10 cycles
 SCF Done:  E(RB3LYP) =  -1387.32033357     A.U. after   10 cycles
 SCF Done:  E(RB3LYP) =  -1387.32033330     A.U. after   10 cycles
 SCF Done:  E(RB3LYP) =  -1387.32033326     A.U. after    8 cycles
 SCF Done:  E(RB3LYP) =  -1387.32033302     A.U. after    7 cycles
 Optimization completed.
    -- Stationary point found.

                         Standard orientation:
 ---------------------------------------------------------------------
 Center     Atomic      Atomic             Coordinates (Angstroms)
 Number     Number       Type             X           Y           Z
 ---------------------------------------------------------------------
      1          6           0       -1.566781    0.613513    3.160054
      2          6           0       -1.618083    1.735304    2.432939
      3          6           0       -1.736831    1.691102    0.923843
      4          6           0       -1.494519    0.298590    0.260357
      5          6           0       -1.052907   -0.889858    1.155104
      6          6           0       -1.632895   -0.774245    2.586306
      7          6           0       -0.497027    0.589329   -0.891477
      8          6           0        0.950763    0.496661   -0.459785
      9          6           0        1.430167   -0.363671    0.473398
     10          6           0        0.477125   -1.144844    1.269183
     11          6           0        2.912169   -0.402960    0.796584
     12          8           0        3.497353    0.634369    1.053628
     13          6           0        3.620861   -1.753058    0.738669
     14          6           0        3.557344   -2.330728   -0.702395
     15          6           0        5.046026   -1.656296    1.291083
     16          8           0        0.848442   -1.999502    2.070559
     17          6           0       -0.556188    2.097940   -1.211803
     18          6           0        0.832948    2.368092   -1.839386
     19          8           0        1.694988    1.380549   -1.132054
     20          6           0       -0.803757    2.697603    0.187129
     21          8           0       -0.680314   -0.284104   -1.990622
     22          6           0       -1.689757   -2.097353    0.415744
     23          6           0       -3.015979   -1.528310   -0.079047
     24          8           0       -2.730083   -0.128941   -0.369248
     25          6           0       -3.673197   -2.145105   -1.296551
     26          6           0       -4.932832   -1.449902   -1.755011
     27          6           0       -3.204344   -3.243788   -1.896449
     28          6           0        0.884450    2.048697   -3.335084
     29          6           0        1.444581    3.737460   -1.554929
     30          1           0       -1.368010    2.334897   -1.906476
     31          1           0       -2.772606    1.946177    0.657431
     32          6           0       -1.630374    3.100151    3.076079
     33          1           0       -1.516036    0.690412    4.245407
     34          1           0       -2.680330   -1.111396    2.587131
     35          1           0       -1.087899   -1.482722    3.216805
     36          1           0        3.029464   -2.425612    1.371534
     37          1           0        3.997631   -3.336203   -0.675329
     38          1           0        2.505392   -2.465194   -0.983956
     39          1           0        5.539255   -2.634037    1.239547
     40          1           0        5.035712   -1.332477    2.336496
     41          1           0        5.648899   -0.932205    0.736101
     42          1           0       -1.233854    3.702326    0.145210
     43          1           0        0.142904    2.774894    0.732953
     44          1           0       -1.648129   -0.418392   -2.030365
     45          1           0       -1.811822   -2.958284    1.078258
     46          1           0       -1.061774   -2.392812   -0.429329
     47          1           0       -3.755551   -1.539423    0.737209
     48          1           0       -5.690956   -1.451271   -0.959683
     49          1           0       -4.735905   -0.399099   -1.996210
     50          1           0       -5.361836   -1.937144   -2.635458
     51          1           0       -2.309927   -3.759805   -1.562624
     52          1           0       -3.718046   -3.677613   -2.750774
     53          1           0        0.458436    1.065023   -3.540366
     54          1           0        1.922156    2.070053   -3.683452
     55          1           0        0.320103    2.801946   -3.896951
     56          1           0        0.830460    4.521832   -2.011466
     57          1           0        2.448560    3.794744   -1.986729
     58          1           0        1.527233    3.935271   -0.483981
     59          1           0       -1.614757    3.021099    4.167395
     60          1           0       -0.768853    3.708744    2.772718
     61          1           0       -2.529667    3.664974    2.790973
     62          6           0        4.263073   -1.489600   -1.773612
     63          1           0        5.335087   -1.390593   -1.571409
     64          1           0        3.842370   -0.479336   -1.834742
     65          1           0        4.155002   -1.956085   -2.759631
 ---------------------------------------------------------------------

 The electronic state is 1-A.
 Alpha  occ. eigenvalues --  -19.19523 -19.16671 -19.15816 -19.12682 -19.12430
 Alpha  occ. eigenvalues --  -10.27231 -10.27212 -10.26594 -10.26206 -10.25731
 Alpha  occ. eigenvalues --  -10.25710 -10.25198 -10.21344 -10.20846 -10.20553
 Alpha  occ. eigenvalues --  -10.20318 -10.19795 -10.19586 -10.19336 -10.19122
 Alpha  occ. eigenvalues --  -10.18944 -10.18937 -10.18772 -10.18749 -10.18443
 Alpha  occ. eigenvalues --  -10.18115 -10.18083 -10.17567 -10.17499 -10.16240
 Alpha  occ. eigenvalues --  -10.15686  -1.09152  -1.05859  -1.02958  -1.02432
 Alpha  occ. eigenvalues --   -1.02190  -0.86650  -0.83557  -0.82384  -0.81350
 Alpha  occ. eigenvalues --   -0.80199  -0.79245  -0.76549  -0.74265  -0.73092
 Alpha  occ. eigenvalues --   -0.71580  -0.71121  -0.69873  -0.69526  -0.67813
 Alpha  occ. eigenvalues --   -0.65438  -0.64154  -0.63355  -0.61498  -0.60525
 Alpha  occ. eigenvalues --   -0.59356  -0.58607  -0.56904  -0.54587  -0.53467
 Alpha  occ. eigenvalues --   -0.52599  -0.51967  -0.50659  -0.50254  -0.49206
 Alpha  occ. eigenvalues --   -0.48057  -0.47011  -0.46458  -0.46104  -0.45781
 Alpha  occ. eigenvalues --   -0.45204  -0.44543  -0.44483  -0.43713  -0.43279
 Alpha  occ. eigenvalues --   -0.42855  -0.42662  -0.41974  -0.41602  -0.41310
 Alpha  occ. eigenvalues --   -0.40713  -0.40571  -0.40432  -0.39933  -0.39200
 Alpha  occ. eigenvalues --   -0.38972  -0.38348  -0.38064  -0.37699  -0.37517
 Alpha  occ. eigenvalues --   -0.37464  -0.37307  -0.37122  -0.36898  -0.36595
 Alpha  occ. eigenvalues --   -0.36401  -0.35606  -0.35161  -0.34874  -0.34130
 Alpha  occ. eigenvalues --   -0.33594  -0.33448  -0.33328  -0.32711  -0.31958
 Alpha  occ. eigenvalues --   -0.31389  -0.31146  -0.30837  -0.28090  -0.26668
 Alpha  occ. eigenvalues --   -0.26321  -0.24509  -0.24063  -0.23373  -0.22544
 Alpha virt. eigenvalues --   -0.04670  -0.00759   0.00281   0.02240   0.05517
 Alpha virt. eigenvalues --    0.07174   0.08803   0.08880   0.09344   0.10298
 Alpha virt. eigenvalues --    0.10662   0.10809   0.11247   0.11875   0.12317

 Mulliken atomic charges:
              1
     1  C   -0.187832
     2  C    0.193960
     3  C   -0.188358
     4  C    0.325460
     5  C   -0.051786
     6  C   -0.334256
     7  C    0.199335
     8  C    0.408997
     9  C   -0.096677
    10  C    0.421011
    11  C    0.423260
    12  O   -0.453611
    13  C   -0.174495
    14  C   -0.265959
    15  C   -0.444265
    16  O   -0.512537
    17  C   -0.164887
    18  C    0.302740
    19  O   -0.519404
    20  C   -0.325088
    21  O   -0.657093
    22  C   -0.325395
    23  C    0.096868
    24  O   -0.591829
    25  C    0.181630
    26  C   -0.507920
    27  C   -0.393145
    28  C   -0.469369
    29  C   -0.457360
    30  H    0.143071
    31  H    0.163773
    32  C   -0.519958
    33  H    0.122730
    34  H    0.145718
    35  H    0.184723
    36  H    0.180768
    37  H    0.136691
    38  H    0.141604
    39  H    0.131502
    40  H    0.152052
    41  H    0.157934
    42  H    0.150981
    43  H    0.173625
    44  H    0.413588
    45  H    0.167891
    46  H    0.169061
    47  H    0.138782
    48  H    0.156597
    49  H    0.170893
    50  H    0.154462
    51  H    0.152438
    52  H    0.142425
    53  H    0.191740
    54  H    0.158652
    55  H    0.143021
    56  H    0.147960
    57  H    0.166282
    58  H    0.168067
    59  H    0.158069
    60  H    0.159727
    61  H    0.149696
    62  C   -0.454456
    63  H    0.148052
    64  H    0.160852
    65  H    0.138991
 Sum of Mulliken atomic charges =   0.00000

 Dipole moment (field-independent basis, Debye):
    X=             -4.8865    Y=              1.6604    Z=             -2.3703  Tot=              5.6792
 Quadrupole moment (field-independent basis, Debye-Ang):
   XX=           -187.7399   YY=           -174.6744   ZZ=           -183.9202
   XY=             -1.0222   XZ=             -4.8319   YZ=             -0.0391

 Normal termination of Gaussian 09 at Wed Mar 24 16:51:12 2021.
