 Gaussian 09, Revision B.01,
 Gaussian 09:  EM64L-G09RevB.01 12-Aug-2010

 ---------------------------------------
 # opt rb3lyp/6-31g(d) geom=connectivity
 ---------------------------------------

 -------------------
 Title Card Required
 -------------------
 Symbolic Z-matrix:
 Charge =  0 Multiplicity = 1

 SCF Done:  E(RB3LYP) =  -1387.30042710     A.U. after   16 cycles
 SCF Done:  E(RB3LYP) =  -1387.31314179     A.U. after   13 cycles
 SCF Done:  E(RB3LYP) =  -1387.31345283     A.U. after   13 cycles
 SCF Done:  E(RB3LYP) =  -1387.31421319     A.U. after   14 cycles
 SCF Done:  E(RB3LYP) =  -1387.31568002     A.U. after   13 cycles
 SCF Done:  E(RB3LYP) =  -1387.31579621     A.U. after   12 cycles
 SCF Done:  E(RB3LYP) =  -1387.31574286     A.U. after   12 cycles
 SCF Done:  E(RB3LYP) =  -1387.31590615     A.U. after   11 cycles
 SCF Done:  E(RB3LYP) =  -1387.31591882     A.U. after   10 cycles
 SCF Done:  E(RB3LYP) =  -1387.31591432     A.U. after   10 cycles
 SCF Done:  E(RB3LYP) =  -1387.31591468     A.U. after    8 cycles
 SCF Done:  E(RB3LYP) =  -1387.31591616     A.U. after    7 cycles
 SCF Done:  E(RB3LYP) =  -1387.31591627     A.U. after    7 cycles
 SCF Done:  E(RB3LYP) =  -1387.31591624     A.U. after    6 cycles
 Optimization completed.
    -- Stationary point found.

                         Standard orientation:
 ---------------------------------------------------------------------
 Center     Atomic      Atomic             Coordinates (Angstroms)
 Number     Number       Type             X           Y           Z
 ---------------------------------------------------------------------
      1          6           0       -0.787818   -2.551465    1.993704
      2          6           0       -0.558862   -1.412781    2.659548
      3          6           0       -0.950812   -0.069359    2.080045
      4          6           0       -1.342531   -0.067442    0.568070
      5          6           0       -1.201268   -1.384688   -0.241506
      6          6           0       -1.450574   -2.627695    0.646353
      7          6           0       -0.528639    1.106862   -0.038943
      8          6           0        0.841548    0.688136   -0.524112
      9          6           0        1.147577   -0.527702   -1.026509
     10          6           0        0.141272   -1.589152   -0.993390
     11          6           0        2.477804   -0.833510   -1.705427
     12          8           0        2.633603   -0.497951   -2.863303
     13          6           0        3.602369   -1.499595   -0.911497
     14          6           0        4.388173   -0.426766   -0.111100
     15          6           0        3.131436   -2.634588    0.009863
     16          8           0        0.344582   -2.670936   -1.538458
     17          6           0       -0.103768    2.044555    1.111504
     18          6           0        1.155692    2.739691    0.537244
     19          8           0        1.730224    1.679902   -0.338701
     20          6           0        0.128995    1.039841    2.257806
     21          8           0       -1.205074    1.725036   -1.116593
     22          6           0       -2.334093   -1.232982   -1.290965
     23          6           0       -3.442024   -0.548004   -0.496272
     24          8           0       -2.740101    0.302242    0.459811
     25          6           0       -4.459760    0.300281   -1.231433
     26          6           0       -5.469125    0.986854   -0.342286
     27          6           0       -4.491432    0.407994   -2.563359
     28          6           0        0.821894    3.944234   -0.345581
     29          6           0        2.243306    3.094218    1.547644
     30          1           0       -0.888233    2.766982    1.356863
     31          1           0       -1.858055    0.270077    2.600310
     32          6           0        0.022717   -1.409314    4.052048
     33          1           0       -0.527563   -3.498807    2.464305
     34          1           0       -1.101584   -3.501829    0.088822
     35          1           0       -2.532411   -2.769211    0.789623
     36          1           0        4.276849   -1.907850   -1.674826
     37          1           0        3.711312    0.055279    0.606510
     38          1           0        5.140891   -0.958645    0.486652
     39          1           0        2.589866   -3.403401   -0.546624
     40          1           0        3.997636   -3.098602    0.495438
     41          1           0        2.467542   -2.262549    0.799621
     42          1           0        1.124508    0.591801    2.164657
     43          1           0        0.079598    1.507268    3.245497
     44          1           0       -2.148207    1.693426   -0.860746
     45          1           0       -2.636620   -2.199269   -1.702915
     46          1           0       -1.996378   -0.593586   -2.110900
     47          1           0       -3.996517   -1.295007    0.093062
     48          1           0       -6.048376    0.250748    0.232226
     49          1           0       -4.971640    1.633001    0.390044
     50          1           0       -6.169853    1.592301   -0.924590
     51          1           0       -3.780784   -0.093399   -3.212292
     52          1           0       -5.252742    1.006104   -3.057895
     53          1           0        1.722592    4.281833   -0.868349
     54          1           0        0.454498    4.771200    0.273177
     55          1           0        0.057052    3.687617   -1.080315
     56          1           0        3.118957    3.497666    1.029365
     57          1           0        1.873995    3.860286    2.238562
     58          1           0        2.562609    2.227377    2.131095
     59          1           0        0.210331   -2.428503    4.403529
     60          1           0        0.969130   -0.856315    4.105513
     61          1           0       -0.662136   -0.927073    4.764314
     62          6           0        5.074957    0.638798   -0.970421
     63          1           0        4.348444    1.227267   -1.538053
     64          1           0        5.651414    1.327484   -0.341514
     65          1           0        5.765800    0.181462   -1.688361
 ---------------------------------------------------------------------

 The electronic state is 1-A.
 Alpha  occ. eigenvalues --  -19.19554 -19.16616 -19.15618 -19.12845 -19.12567
 Alpha  occ. eigenvalues --  -10.27019 -10.26935 -10.26748 -10.26693 -10.25760
 Alpha  occ. eigenvalues --  -10.25684 -10.25114 -10.21293 -10.20704 -10.20648
 Alpha  occ. eigenvalues --  -10.20530 -10.20103 -10.19697 -10.19417 -10.19216
 Alpha  occ. eigenvalues --  -10.19121 -10.18894 -10.18844 -10.18818 -10.18795
 Alpha  occ. eigenvalues --  -10.18453 -10.18431 -10.18074 -10.18064 -10.16664
 Alpha  occ. eigenvalues --  -10.16307  -1.08941  -1.05774  -1.03125  -1.02349
 Alpha  occ. eigenvalues --   -1.02292  -0.86748  -0.83644  -0.82358  -0.81454
 Alpha  occ. eigenvalues --   -0.80283  -0.79808  -0.76680  -0.74295  -0.73216
 Alpha  occ. eigenvalues --   -0.72169  -0.71512  -0.70012  -0.69432  -0.67928
 Alpha  occ. eigenvalues --   -0.65022  -0.63947  -0.63266  -0.61859  -0.60664
 Alpha  occ. eigenvalues --   -0.59411  -0.59178  -0.56968  -0.55495  -0.53633
 Alpha  occ. eigenvalues --   -0.53050  -0.52206  -0.50852  -0.50351  -0.49201
 Alpha  occ. eigenvalues --   -0.48081  -0.47062  -0.46667  -0.46061  -0.45841
 Alpha  occ. eigenvalues --   -0.45201  -0.44522  -0.44149  -0.43672  -0.43390
 Alpha  occ. eigenvalues --   -0.42888  -0.42199  -0.41950  -0.41742  -0.41527
 Alpha  occ. eigenvalues --   -0.40884  -0.40657  -0.40585  -0.40458  -0.39930
 Alpha  occ. eigenvalues --   -0.39268  -0.39064  -0.38337  -0.38157  -0.37731
 Alpha  occ. eigenvalues --   -0.37610  -0.37397  -0.37300  -0.36923  -0.36707
 Alpha  occ. eigenvalues --   -0.36600  -0.35497  -0.35314  -0.34807  -0.34449
 Alpha  occ. eigenvalues --   -0.33680  -0.33584  -0.33482  -0.32723  -0.32449
 Alpha  occ. eigenvalues --   -0.31935  -0.31227  -0.31054  -0.27995  -0.26620
 Alpha  occ. eigenvalues --   -0.26174  -0.24802  -0.24211  -0.23550  -0.22558
 Alpha virt. eigenvalues --   -0.04447  -0.00879   0.00390   0.01889   0.04723
 Alpha virt. eigenvalues --    0.06189   0.07553   0.08728   0.08953   0.10170
 Alpha virt. eigenvalues --    0.10496   0.10824   0.11286   0.11719   0.12633

 Mulliken atomic charges:
              1
     1  C   -0.188454
     2  C    0.189880
     3  C   -0.187985
     4  C    0.322664
     5  C   -0.056407
     6  C   -0.333734
     7  C    0.202464
     8  C    0.402610
     9  C   -0.101897
    10  C    0.442917
    11  C    0.424407
    12  O   -0.432831
    13  C   -0.147820
    14  C   -0.264370
    15  C   -0.470041
    16  O   -0.515997
    17  C   -0.163149
    18  C    0.303839
    19  O   -0.534564
    20  C   -0.322549
    21  O   -0.654004
    22  C   -0.326535
    23  C    0.095897
    24  O   -0.591791
    25  C    0.180437
    26  C   -0.508101
    27  C   -0.392295
    28  C   -0.467303
    29  C   -0.461434
    30  H    0.143925
    31  H    0.165279
    32  C   -0.519495
    33  H    0.123089
    34  H    0.183894
    35  H    0.147309
    36  H    0.150158
    37  H    0.137410
    38  H    0.135061
    39  H    0.180202
    40  H    0.138953
    41  H    0.140417
    42  H    0.161876
    43  H    0.151083
    44  H    0.413746
    45  H    0.168294
    46  H    0.176695
    47  H    0.137573
    48  H    0.155936
    49  H    0.170291
    50  H    0.154690
    51  H    0.156194
    52  H    0.142664
    53  H    0.158676
    54  H    0.141382
    55  H    0.196648
    56  H    0.166044
    57  H    0.151230
    58  H    0.159432
    59  H    0.158235
    60  H    0.155926
    61  H    0.151924
    62  C   -0.448087
    63  H    0.170873
    64  H    0.132447
    65  H    0.146172
 Sum of Mulliken atomic charges =   0.00000

 Dipole moment (field-independent basis, Debye):
    X=             -2.8021    Y=              2.4338    Z=              5.6726  Tot=              6.7789
 Quadrupole moment (field-independent basis, Debye-Ang):
   XX=           -175.4178   YY=           -181.1810   ZZ=           -192.4415
   XY=              2.0480   XZ=             11.7440   YZ=             -0.8773

 Normal termination of Gaussian 09 at Wed Mar 24 16:34:04 2021.
