 Gaussian 09, Revision B.01,
 Gaussian 09:  EM64L-G09RevB.01 12-Aug-2010

 ---------------------------------------
 # opt rb3lyp/6-31g(d) geom=connectivity
 ---------------------------------------

 -------------------
 Title Card Required
 -------------------
 Symbolic Z-matrix:
 Charge =  0 Multiplicity = 1

 SCF Done:  E(RB3LYP) =  -1387.30043004     A.U. after   16 cycles
 SCF Done:  E(RB3LYP) =  -1387.31256033     A.U. after   13 cycles
 SCF Done:  E(RB3LYP) =  -1387.31482570     A.U. after   13 cycles
 SCF Done:  E(RB3LYP) =  -1387.31446432     A.U. after   13 cycles
 SCF Done:  E(RB3LYP) =  -1387.31584200     A.U. after   13 cycles
 SCF Done:  E(RB3LYP) =  -1387.31618724     A.U. after   12 cycles
 SCF Done:  E(RB3LYP) =  -1387.31640801     A.U. after   13 cycles
 SCF Done:  E(RB3LYP) =  -1387.31662391     A.U. after   13 cycles
 SCF Done:  E(RB3LYP) =  -1387.31686892     A.U. after   12 cycles
 SCF Done:  E(RB3LYP) =  -1387.31692328     A.U. after   13 cycles
 SCF Done:  E(RB3LYP) =  -1387.31694316     A.U. after   11 cycles
 SCF Done:  E(RB3LYP) =  -1387.31695624     A.U. after   10 cycles
 SCF Done:  E(RB3LYP) =  -1387.31695881     A.U. after   10 cycles
 SCF Done:  E(RB3LYP) =  -1387.31695961     A.U. after    8 cycles
 SCF Done:  E(RB3LYP) =  -1387.31696003     A.U. after    8 cycles
 SCF Done:  E(RB3LYP) =  -1387.31696006     A.U. after    6 cycles
 Optimization completed.
    -- Stationary point found.

                         Standard orientation:
 ---------------------------------------------------------------------
 Center     Atomic      Atomic             Coordinates (Angstroms)
 Number     Number       Type             X           Y           Z
 ---------------------------------------------------------------------
      1          6           0       -1.606556    0.123644    2.949080
      2          6           0       -2.058413    1.246242    2.376881
      3          6           0       -1.701888    1.564796    0.942913
      4          6           0       -1.407691    0.340020    0.016024
      5          6           0       -1.112061   -1.027549    0.721799
      6          6           0       -0.738532   -0.870328    2.224953
      7          6           0       -0.275065    0.835134   -0.942713
      8          6           0        1.101900    0.315038   -0.554835
      9          6           0        1.326371   -0.956730   -0.142522
     10          6           0        0.095918   -1.773172    0.080468
     11          6           0        2.652065   -1.576510    0.166114
     12          8           0        2.716120   -2.477863    0.990798
     13          6           0        3.912403   -1.089163   -0.558802
     14          6           0        4.781986   -0.197888    0.371059
     15          6           0        4.684500   -2.299871   -1.109493
     16          8           0        0.052731   -2.970713   -0.126400
     17          6           0       -0.078253    2.348627   -0.703196
     18          6           0        1.406422    2.574273   -1.061694
     19          8           0        2.029746    1.274681   -0.693270
     20          6           0       -0.474421    2.499173    0.778537
     21          8           0       -0.515642    0.463060   -2.284102
     22          6           0       -2.418442   -1.839076    0.524393
     23          6           0       -3.397864   -0.879949   -0.156197
     24          8           0       -2.546806    0.088982   -0.818442
     25          6           0       -4.387368   -1.422547   -1.163702
     26          6           0       -5.162219   -0.376550   -1.928618
     27          6           0       -4.611501   -2.730224   -1.319165
     28          6           0        1.618561    2.776844   -2.564127
     29          6           0        2.138396    3.639341   -0.251608
     30          1           0       -0.738228    2.934708   -1.349590
     31          1           0       -2.554781    2.069675    0.468622
     32          6           0       -2.900396    2.257787    3.110802
     33          1           0       -1.844792   -0.083540    3.991424
     34          1           0       -0.803775   -1.858060    2.693881
     35          1           0        0.317019   -0.576497    2.315475
     36          1           0        3.606251   -0.458508   -1.399421
     37          1           0        4.174347    0.653510    0.701958
     38          1           0        5.583561    0.226939   -0.249423
     39          1           0        4.918270   -3.011478   -0.313851
     40          1           0        4.094205   -2.828802   -1.866017
     41          1           0        5.620839   -1.973477   -1.577664
     42          1           0        0.334815    2.155070    1.433820
     43          1           0       -0.699059    3.533003    1.058362
     44          1           0       -1.439543    0.138588   -2.293837
     45          1           0       -2.192135   -2.703262   -0.104182
     46          1           0       -2.818545   -2.210110    1.471632
     47          1           0       -3.968034   -0.330585    0.611528
     48          1           0       -4.494189    0.249257   -2.531313
     49          1           0       -5.900441   -0.835429   -2.592681
     50          1           0       -5.690772    0.300743   -1.243453
     51          1           0       -5.365140   -3.088978   -2.015522
     52          1           0       -4.070020   -3.489809   -0.765035
     53          1           0        2.687271    2.741155   -2.799457
     54          1           0        1.232998    3.756804   -2.867874
     55          1           0        1.099109    2.006522   -3.138668
     56          1           0        2.075405    3.449861    0.822886
     57          1           0        3.196056    3.665260   -0.532555
     58          1           0        1.707806    4.625547   -0.456765
     59          1           0       -3.093914    1.947144    4.142326
     60          1           0       -2.411686    3.241515    3.142174
     61          1           0       -3.868086    2.407099    2.611724
     62          6           0        5.399641   -0.893646    1.589230
     63          1           0        6.104635   -1.678180    1.293541
     64          1           0        5.951432   -0.167792    2.198438
     65          1           0        4.634972   -1.359376    2.217357
 ---------------------------------------------------------------------

 The electronic state is 1-A.
 Alpha  occ. eigenvalues --  -19.20108 -19.17072 -19.15178 -19.12980 -19.11946
 Alpha  occ. eigenvalues --  -10.27088 -10.27043 -10.26840 -10.26213 -10.26140
 Alpha  occ. eigenvalues --  -10.26016 -10.24855 -10.21230 -10.20767 -10.20632
 Alpha  occ. eigenvalues --  -10.20494 -10.20229 -10.19976 -10.19595 -10.19521
 Alpha  occ. eigenvalues --  -10.19200 -10.18973 -10.18869 -10.18566 -10.18543
 Alpha  occ. eigenvalues --  -10.18346 -10.18160 -10.18058 -10.17529 -10.16232
 Alpha  occ. eigenvalues --  -10.15855  -1.09398  -1.06504  -1.03280  -1.02350
 Alpha  occ. eigenvalues --   -1.01665  -0.87027  -0.83940  -0.82153  -0.81339
 Alpha  occ. eigenvalues --   -0.80154  -0.79127  -0.76872  -0.74019  -0.73154
 Alpha  occ. eigenvalues --   -0.72213  -0.71202  -0.70434  -0.69107  -0.68245
 Alpha  occ. eigenvalues --   -0.65220  -0.64220  -0.63702  -0.61787  -0.60764
 Alpha  occ. eigenvalues --   -0.59181  -0.58463  -0.56790  -0.55032  -0.53224
 Alpha  occ. eigenvalues --   -0.52948  -0.51674  -0.51113  -0.49658  -0.49430
 Alpha  occ. eigenvalues --   -0.48171  -0.47398  -0.46849  -0.46655  -0.46079
 Alpha  occ. eigenvalues --   -0.45121  -0.44443  -0.44251  -0.43965  -0.43280
 Alpha  occ. eigenvalues --   -0.42758  -0.42649  -0.42275  -0.41657  -0.41419
 Alpha  occ. eigenvalues --   -0.41128  -0.40597  -0.40430  -0.39916  -0.39770
 Alpha  occ. eigenvalues --   -0.39273  -0.38987  -0.38561  -0.38167  -0.38005
 Alpha  occ. eigenvalues --   -0.37658  -0.37295  -0.37017  -0.36930  -0.36296
 Alpha  occ. eigenvalues --   -0.35865  -0.35776  -0.35213  -0.34854  -0.34391
 Alpha  occ. eigenvalues --   -0.33612  -0.33221  -0.33130  -0.32976  -0.32355
 Alpha  occ. eigenvalues --   -0.31326  -0.31265  -0.30793  -0.28145  -0.27395
 Alpha  occ. eigenvalues --   -0.25756  -0.24533  -0.24309  -0.23456  -0.22217
 Alpha virt. eigenvalues --   -0.04464  -0.01551   0.01078   0.01115   0.05309
 Alpha virt. eigenvalues --    0.07326   0.07793   0.08465   0.09430   0.10135
 Alpha virt. eigenvalues --    0.10575   0.10647   0.11504   0.11824   0.12400

 Mulliken atomic charges:
              1
     1  C   -0.193540
     2  C    0.197473
     3  C   -0.196840
     4  C    0.312576
     5  C   -0.030293
     6  C   -0.327950
     7  C    0.202135
     8  C    0.389273
     9  C   -0.087828
    10  C    0.398100
    11  C    0.431580
    12  O   -0.472088
    13  C   -0.146955
    14  C   -0.264332
    15  C   -0.452858
    16  O   -0.453603
    17  C   -0.155315
    18  C    0.298234
    19  O   -0.533513
    20  C   -0.308651
    21  O   -0.669103
    22  C   -0.335655
    23  C    0.103953
    24  O   -0.585182
    25  C    0.187707
    26  C   -0.505913
    27  C   -0.393213
    28  C   -0.467670
    29  C   -0.462887
    30  H    0.148414
    31  H    0.147049
    32  C   -0.520986
    33  H    0.125778
    34  H    0.167157
    35  H    0.167965
    36  H    0.136872
    37  H    0.139308
    38  H    0.129903
    39  H    0.173205
    40  H    0.150343
    41  H    0.134581
    42  H    0.160294
    43  H    0.151465
    44  H    0.423364
    45  H    0.190545
    46  H    0.149318
    47  H    0.135659
    48  H    0.168007
    49  H    0.154042
    50  H    0.150683
    51  H    0.139083
    52  H    0.153882
    53  H    0.156665
    54  H    0.145789
    55  H    0.197224
    56  H    0.161467
    57  H    0.164718
    58  H    0.152822
    59  H    0.158892
    60  H    0.155102
    61  H    0.154455
    62  C   -0.446739
    63  H    0.145115
    64  H    0.131277
    65  H    0.169641
 Sum of Mulliken atomic charges =   0.00000

 Dipole moment (field-independent basis, Debye):
    X=             -3.0955    Y=              6.5375    Z=              0.4059  Tot=              7.2447
 Quadrupole moment (field-independent basis, Debye-Ang):
   XX=           -177.5159   YY=           -188.0233   ZZ=           -183.1942
   XY=              9.2705   XZ=             -5.2364   YZ=              1.4968

 Normal termination of Gaussian 09 at Wed Mar 24 15:52:15 2021.
