 Gaussian 09, Revision B.01,
 Gaussian 09:  EM64L-G09RevB.01 12-Aug-2010

 ---------------------------------------
 # opt rb3lyp/6-31g(d) geom=connectivity
 ---------------------------------------

 -------------------
 Title Card Required
 -------------------
 Symbolic Z-matrix:
 Charge =  0 Multiplicity = 1

 SCF Done:  E(RB3LYP) =  -1387.30217405     A.U. after   15 cycles
 SCF Done:  E(RB3LYP) =  -1387.31486716     A.U. after   13 cycles
 SCF Done:  E(RB3LYP) =  -1387.31618056     A.U. after   13 cycles
 SCF Done:  E(RB3LYP) =  -1387.31448404     A.U. after   13 cycles
 SCF Done:  E(RB3LYP) =  -1387.31682386     A.U. after   13 cycles
 SCF Done:  E(RB3LYP) =  -1387.31712078     A.U. after   12 cycles
 SCF Done:  E(RB3LYP) =  -1387.31691621     A.U. after   12 cycles
 SCF Done:  E(RB3LYP) =  -1387.31733957     A.U. after   12 cycles
 SCF Done:  E(RB3LYP) =  -1387.31741409     A.U. after   12 cycles
 SCF Done:  E(RB3LYP) =  -1387.31743851     A.U. after   11 cycles
 SCF Done:  E(RB3LYP) =  -1387.31746004     A.U. after   10 cycles
 SCF Done:  E(RB3LYP) =  -1387.31746083     A.U. after    8 cycles
 SCF Done:  E(RB3LYP) =  -1387.31746112     A.U. after   10 cycles
 SCF Done:  E(RB3LYP) =  -1387.31746125     A.U. after    8 cycles
 SCF Done:  E(RB3LYP) =  -1387.31746108     A.U. after    8 cycles
 SCF Done:  E(RB3LYP) =  -1387.31746094     A.U. after    7 cycles
 SCF Done:  E(RB3LYP) =  -1387.31746071     A.U. after    7 cycles
 SCF Done:  E(RB3LYP) =  -1387.31746054     A.U. after    7 cycles
 SCF Done:  E(RB3LYP) =  -1387.31746041     A.U. after    6 cycles
 SCF Done:  E(RB3LYP) =  -1387.31746031     A.U. after    6 cycles
 Optimization completed.
    -- Stationary point found.

                         Standard orientation:
 ---------------------------------------------------------------------
 Center     Atomic      Atomic             Coordinates (Angstroms)
 Number     Number       Type             X           Y           Z
 ---------------------------------------------------------------------
      1          6           0       -2.122334    0.372381    2.740811
      2          6           0       -2.712873    1.246897    1.917285
      3          6           0       -2.132324    1.497205    0.544225
      4          6           0       -1.379799    0.294630   -0.115164
      5          6           0       -0.927115   -0.851197    0.850777
      6          6           0       -0.898930   -0.410933    2.347119
      7          6           0       -0.223679    0.964195   -0.931129
      8          6           0        1.125811    0.817446   -0.257179
      9          6           0        1.538919   -0.319495    0.338487
     10          6           0        0.516853   -1.356105    0.573582
     11          6           0        2.908608   -0.499387    0.970518
     12          8           0        3.017843   -0.327665    2.171832
     13          6           0        4.085554   -0.950211    0.111370
     14          6           0        4.021669   -2.486816   -0.100845
     15          6           0        4.170910   -0.214981   -1.235435
     16          8           0        0.794901   -2.540133    0.716185
     17          6           0       -0.405007    2.496896   -0.859069
     18          6           0        1.041861    3.032170   -0.976723
     19          8           0        1.850896    1.942949   -0.370068
     20          6           0       -1.127842    2.679048    0.488800
     21          8           0       -0.116870    0.437595   -2.239635
     22          6           0       -1.965104   -1.975348    0.611790
     23          6           0       -2.927773   -1.446537   -0.470758
     24          8           0       -2.227422   -0.341669   -1.081100
     25          6           0       -3.319875   -2.452209   -1.528935
     26          6           0       -2.247337   -2.916432   -2.483147
     27          6           0       -4.571089   -2.920009   -1.568512
     28          6           0        1.485428    3.179352   -2.434612
     29          6           0        1.356804    4.290606   -0.173934
     30          1           0       -1.025275    2.853518   -1.686890
     31          1           0       -2.947263    1.730953   -0.154551
     32          6           0       -3.925962    2.051446    2.305712
     33          1           0       -2.518728    0.220114    3.743607
     34          1           0       -0.803792   -1.314529    2.958909
     35          1           0        0.011785    0.172208    2.545321
     36          1           0        4.977789   -0.725434    0.709772
     37          1           0        4.826842   -2.746582   -0.801622
     38          1           0        3.076957   -2.743522   -0.594906
     39          1           0        3.304404   -0.440572   -1.866953
     40          1           0        5.070906   -0.533853   -1.773251
     41          1           0        4.218337    0.870268   -1.103696
     42          1           0       -0.422648    2.596954    1.324462
     43          1           0       -1.624878    3.649742    0.580402
     44          1           0       -0.948969   -0.058610   -2.375646
     45          1           0       -1.444787   -2.883574    0.298929
     46          1           0       -2.519228   -2.217185    1.522188
     47          1           0       -3.836285   -1.051162    0.002558
     48          1           0       -1.338823   -3.232216   -1.956170
     49          1           0       -1.951485   -2.111188   -3.166863
     50          1           0       -2.598993   -3.755839   -3.089995
     51          1           0       -4.872460   -3.687167   -2.277046
     52          1           0       -5.339304   -2.559313   -0.888668
     53          1           0        1.262096    2.273882   -3.003654
     54          1           0        0.963246    4.021960   -2.902315
     55          1           0        2.561666    3.375271   -2.480917
     56          1           0        1.134250    4.162545    0.888310
     57          1           0        0.770424    5.134127   -0.554672
     58          1           0        2.417719    4.542092   -0.271046
     59          1           0       -4.254028    1.818832    3.323741
     60          1           0       -3.725417    3.130731    2.255296
     61          1           0       -4.765908    1.859203    1.623613
     62          6           0        4.165110   -3.311786    1.180701
     63          1           0        4.167011   -4.382558    0.947054
     64          1           0        5.100752   -3.078919    1.703625
     65          1           0        3.336411   -3.123751    1.868960
 ---------------------------------------------------------------------

 The electronic state is 1-A.
 Alpha  occ. eigenvalues --  -19.19450 -19.16939 -19.14991 -19.13280 -19.13268
 Alpha  occ. eigenvalues --  -10.27255 -10.26969 -10.26649 -10.26473 -10.26071
 Alpha  occ. eigenvalues --  -10.25844 -10.24709 -10.21329 -10.20451 -10.20390
 Alpha  occ. eigenvalues --  -10.20170 -10.20169 -10.19777 -10.19409 -10.19087
 Alpha  occ. eigenvalues --  -10.19017 -10.18826 -10.18659 -10.18511 -10.18490
 Alpha  occ. eigenvalues --  -10.18401 -10.18279 -10.18273 -10.17252 -10.16853
 Alpha  occ. eigenvalues --  -10.15496  -1.08811  -1.06321  -1.03514  -1.02738
 Alpha  occ. eigenvalues --   -1.02147  -0.86873  -0.83688  -0.82103  -0.81292
 Alpha  occ. eigenvalues --   -0.79969  -0.79594  -0.76648  -0.73862  -0.72924
 Alpha  occ. eigenvalues --   -0.72069  -0.71396  -0.70116  -0.69311  -0.68192
 Alpha  occ. eigenvalues --   -0.64824  -0.63659  -0.63391  -0.61684  -0.60578
 Alpha  occ. eigenvalues --   -0.58925  -0.58702  -0.56718  -0.55511  -0.54052
 Alpha  occ. eigenvalues --   -0.52856  -0.51791  -0.51054  -0.49953  -0.49313
 Alpha  occ. eigenvalues --   -0.47719  -0.47130  -0.46592  -0.46149  -0.45794
 Alpha  occ. eigenvalues --   -0.44990  -0.44597  -0.44242  -0.43619  -0.43254
 Alpha  occ. eigenvalues --   -0.42363  -0.42351  -0.42240  -0.41405  -0.41191
 Alpha  occ. eigenvalues --   -0.40923  -0.40559  -0.40224  -0.40107  -0.39899
 Alpha  occ. eigenvalues --   -0.39386  -0.38949  -0.38888  -0.38366  -0.37912
 Alpha  occ. eigenvalues --   -0.37678  -0.37313  -0.36976  -0.36762  -0.36304
 Alpha  occ. eigenvalues --   -0.35675  -0.35347  -0.35183  -0.34819  -0.34422
 Alpha  occ. eigenvalues --   -0.33638  -0.33490  -0.33089  -0.32611  -0.32100
 Alpha  occ. eigenvalues --   -0.32081  -0.31277  -0.30776  -0.28185  -0.27336
 Alpha  occ. eigenvalues --   -0.25451  -0.24653  -0.24366  -0.23485  -0.22635
 Alpha virt. eigenvalues --   -0.03970  -0.01502   0.00765   0.01445   0.03762
 Alpha virt. eigenvalues --    0.06870   0.08097   0.08475   0.08965   0.10183
 Alpha virt. eigenvalues --    0.10632   0.10791   0.11197   0.11989   0.12315

 Mulliken atomic charges:
              1
     1  C   -0.195230
     2  C    0.199576
     3  C   -0.200641
     4  C    0.315642
     5  C   -0.019491
     6  C   -0.331853
     7  C    0.193067
     8  C    0.422634
     9  C   -0.112423
    10  C    0.406780
    11  C    0.420466
    12  O   -0.444988
    13  C   -0.149933
    14  C   -0.261900
    15  C   -0.469938
    16  O   -0.495264
    17  C   -0.154246
    18  C    0.297844
    19  O   -0.536860
    20  C   -0.308959
    21  O   -0.677127
    22  C   -0.344275
    23  C    0.103006
    24  O   -0.590420
    25  C    0.217106
    26  C   -0.524455
    27  C   -0.401916
    28  C   -0.466428
    29  C   -0.460423
    30  H    0.146747
    31  H    0.147034
    32  C   -0.521473
    33  H    0.125728
    34  H    0.164638
    35  H    0.179250
    36  H    0.144733
    37  H    0.130898
    38  H    0.159434
    39  H    0.159976
    40  H    0.143734
    41  H    0.157100
    42  H    0.164658
    43  H    0.150836
    44  H    0.431243
    45  H    0.190175
    46  H    0.152405
    47  H    0.130955
    48  H    0.172568
    49  H    0.163037
    50  H    0.157024
    51  H    0.140633
    52  H    0.138363
    53  H    0.193533
    54  H    0.144297
    55  H    0.156105
    56  H    0.163275
    57  H    0.150404
    58  H    0.163108
    59  H    0.158157
    60  H    0.155346
    61  H    0.155153
    62  C   -0.445410
    63  H    0.137711
    64  H    0.136746
    65  H    0.172533
 Sum of Mulliken atomic charges =   0.00000

 Dipole moment (field-independent basis, Debye):
    X=             -3.7354    Y=              3.4832    Z=             -1.6447  Tot=              5.3657
 Quadrupole moment (field-independent basis, Debye-Ang):
   XX=           -181.0194   YY=           -176.3709   ZZ=           -188.8530
   XY=              2.6394   XZ=            -10.3690   YZ=              2.3296

 Normal termination of Gaussian 09 at Wed Mar 24 17:46:52 2021.
