 Gaussian 09, Revision B.01,
 Gaussian 09:  EM64L-G09RevB.01 12-Aug-2010

 ---------------------------------------
 # opt rb3lyp/6-31g(d) geom=connectivity
 ---------------------------------------

 -------------------
 Title Card Required
 -------------------
 Symbolic Z-matrix:
 Charge =  0 Multiplicity = 1

 SCF Done:  E(RB3LYP) =  -1387.29921237     A.U. after   16 cycles
 SCF Done:  E(RB3LYP) =  -1387.31243000     A.U. after   13 cycles
 SCF Done:  E(RB3LYP) =  -1387.31453196     A.U. after   13 cycles
 SCF Done:  E(RB3LYP) =  -1387.31299736     A.U. after   13 cycles
 SCF Done:  E(RB3LYP) =  -1387.31530158     A.U. after   13 cycles
 SCF Done:  E(RB3LYP) =  -1387.31537038     A.U. after   12 cycles
 SCF Done:  E(RB3LYP) =  -1387.31546875     A.U. after   16 cycles
 SCF Done:  E(RB3LYP) =  -1387.31554428     A.U. after   11 cycles
 SCF Done:  E(RB3LYP) =  -1387.31558252     A.U. after   11 cycles
 SCF Done:  E(RB3LYP) =  -1387.31559372     A.U. after   10 cycles
 SCF Done:  E(RB3LYP) =  -1387.31559970     A.U. after   10 cycles
 SCF Done:  E(RB3LYP) =  -1387.31560213     A.U. after   10 cycles
 SCF Done:  E(RB3LYP) =  -1387.31560365     A.U. after    8 cycles
 SCF Done:  E(RB3LYP) =  -1387.31560405     A.U. after    7 cycles
 SCF Done:  E(RB3LYP) =  -1387.31560426     A.U. after    7 cycles
 SCF Done:  E(RB3LYP) =  -1387.31560426     A.U. after    6 cycles
 Optimization completed.
    -- Stationary point found.

                         Standard orientation:
 ---------------------------------------------------------------------
 Center     Atomic      Atomic             Coordinates (Angstroms)
 Number     Number       Type             X           Y           Z
 ---------------------------------------------------------------------
      1          6           0        2.367848    1.247798   -2.511104
      2          6           0        2.778094    1.939827   -1.441646
      3          6           0        2.112061    1.727758   -0.102114
      4          6           0        1.512201    0.307221    0.147716
      5          6           0        1.257620   -0.580007   -1.109208
      6          6           0        1.267370    0.223726   -2.448206
      7          6           0        0.228342    0.581124    1.014483
      8          6           0       -1.062837    0.485292    0.223283
      9          6           0       -1.292133   -0.451728   -0.722213
     10          6           0       -0.127472   -1.282310   -1.111843
     11          6           0       -2.545980   -0.610151   -1.548815
     12          8           0       -2.437341   -0.567854   -2.763572
     13          6           0       -3.923441   -0.827805   -0.907709
     14          6           0       -3.889293   -1.541411    0.454842
     15          6           0       -4.700745    0.505686   -0.865729
     16          8           0       -0.252286   -2.411643   -1.562311
     17          6           0        0.215152    2.082159    1.384383
     18          6           0       -1.288617    2.396926    1.544414
     19          8           0       -1.927760    1.442725    0.599434
     20          6           0        0.956551    2.719050    0.194588
     21          8           0        0.132934   -0.307511    2.106105
     22          6           0        2.418712   -1.592558   -1.081071
     23          6           0        2.894476   -1.667361    0.372131
     24          8           0        2.433961   -0.420054    0.980424
     25          6           0        2.464734   -2.833564    1.248632
     26          6           0        3.145207   -2.865300    2.598590
     27          6           0        1.582045   -3.766485    0.880197
     28          6           0       -1.803668    2.069571    2.948179
     29          6           0       -1.730570    3.788885    1.103395
     30          1           0        0.756167    2.255685    2.319568
     31          1           0        2.858944    1.853302    0.692945
     32          6           0        3.871079    2.974590   -1.504938
     33          1           0        2.828553    1.428975   -3.481220
     34          1           0        0.289309    0.700561   -2.602190
     35          1           0        1.364959   -0.498859   -3.266259
     36          1           0       -4.439432   -1.475704   -1.629408
     37          1           0       -3.269288   -0.971300    1.157345
     38          1           0       -4.906510   -1.530783    0.869751
     39          1           0       -4.245879    1.211891   -0.166174
     40          1           0       -5.733860    0.322100   -0.549049
     41          1           0       -4.724387    0.966668   -1.858657
     42          1           0        0.300894    2.789801   -0.681514
     43          1           0        1.321473    3.728754    0.406849
     44          1           0        1.036149   -0.676483    2.194636
     45          1           0        2.100371   -2.550655   -1.492887
     46          1           0        3.237315   -1.212446   -1.698782
     47          1           0        3.990482   -1.613354    0.413989
     48          1           0        3.001378   -1.924737    3.145652
     49          1           0        2.769043   -3.683221    3.219698
     50          1           0        4.231288   -2.992694    2.486202
     51          1           0        1.078471   -3.760668   -0.080193
     52          1           0        1.318628   -4.574742    1.558600
     53          1           0       -1.485192    1.071152    3.256931
     54          1           0       -1.414800    2.797604    3.669421
     55          1           0       -2.897318    2.119597    2.967823
     56          1           0       -1.268328    4.547719    1.744213
     57          1           0       -1.453710    3.994257    0.066224
     58          1           0       -2.817410    3.885440    1.192443
     59          1           0        4.267098    3.080530   -2.519914
     60          1           0        3.511581    3.960698   -1.179449
     61          1           0        4.704438    2.711552   -0.838586
     62          6           0       -3.391069   -2.989375    0.367975
     63          1           0       -3.348627   -3.451291    1.360878
     64          1           0       -4.061255   -3.595511   -0.254371
     65          1           0       -2.390615   -3.048496   -0.074418
 ---------------------------------------------------------------------

 The electronic state is 1-A.
 Alpha  occ. eigenvalues --  -19.19723 -19.16683 -19.14859 -19.13365 -19.12743
 Alpha  occ. eigenvalues --  -10.27296 -10.26785 -10.26752 -10.26730 -10.26064
 Alpha  occ. eigenvalues --  -10.25708 -10.24688 -10.21365 -10.20449 -10.20262
 Alpha  occ. eigenvalues --  -10.20137 -10.19691 -10.19586 -10.19427 -10.19271
 Alpha  occ. eigenvalues --  -10.18973 -10.18916 -10.18604 -10.18577 -10.18407
 Alpha  occ. eigenvalues --  -10.18391 -10.18350 -10.17501 -10.17149 -10.16890
 Alpha  occ. eigenvalues --  -10.15842  -1.09014  -1.05713  -1.03602  -1.02374
 Alpha  occ. eigenvalues --   -1.01900  -0.86834  -0.83807  -0.81946  -0.81136
 Alpha  occ. eigenvalues --   -0.79891  -0.79488  -0.76721  -0.73996  -0.72949
 Alpha  occ. eigenvalues --   -0.71918  -0.71615  -0.70215  -0.68702  -0.68020
 Alpha  occ. eigenvalues --   -0.64876  -0.63976  -0.63230  -0.61636  -0.60636
 Alpha  occ. eigenvalues --   -0.59108  -0.58978  -0.56562  -0.55245  -0.53502
 Alpha  occ. eigenvalues --   -0.52832  -0.52041  -0.50649  -0.49929  -0.49025
 Alpha  occ. eigenvalues --   -0.47575  -0.47193  -0.46633  -0.46436  -0.45913
 Alpha  occ. eigenvalues --   -0.44810  -0.44580  -0.44123  -0.43506  -0.42757
 Alpha  occ. eigenvalues --   -0.42292  -0.42187  -0.41904  -0.41632  -0.41175
 Alpha  occ. eigenvalues --   -0.40920  -0.40625  -0.40437  -0.40121  -0.39784
 Alpha  occ. eigenvalues --   -0.39343  -0.39067  -0.38738  -0.38564  -0.38039
 Alpha  occ. eigenvalues --   -0.37967  -0.37541  -0.37268  -0.36590  -0.36165
 Alpha  occ. eigenvalues --   -0.35584  -0.35275  -0.35058  -0.34515  -0.34371
 Alpha  occ. eigenvalues --   -0.33494  -0.33317  -0.33036  -0.32752  -0.32172
 Alpha  occ. eigenvalues --   -0.31470  -0.31295  -0.31105  -0.27405  -0.27189
 Alpha  occ. eigenvalues --   -0.25323  -0.24670  -0.24295  -0.23412  -0.22775
 Alpha virt. eigenvalues --   -0.04189  -0.01945   0.00957   0.01556   0.04761
 Alpha virt. eigenvalues --    0.07104   0.08198   0.08782   0.09302   0.10201
 Alpha virt. eigenvalues --    0.10549   0.11111   0.11460   0.11650   0.12664

 Mulliken atomic charges:
              1
     1  C   -0.197651
     2  C    0.204571
     3  C   -0.200535
     4  C    0.323404
     5  C   -0.047650
     6  C   -0.326792
     7  C    0.200487
     8  C    0.412781
     9  C   -0.103668
    10  C    0.428229
    11  C    0.420298
    12  O   -0.451612
    13  C   -0.143211
    14  C   -0.267793
    15  C   -0.468896
    16  O   -0.491918
    17  C   -0.157433
    18  C    0.300091
    19  O   -0.540764
    20  C   -0.308152
    21  O   -0.671019
    22  C   -0.332969
    23  C    0.094009
    24  O   -0.589948
    25  C    0.181778
    26  C   -0.513917
    27  C   -0.404913
    28  C   -0.467729
    29  C   -0.461410
    30  H    0.145737
    31  H    0.149453
    32  C   -0.520949
    33  H    0.125560
    34  H    0.178222
    35  H    0.167524
    36  H    0.153213
    37  H    0.148333
    38  H    0.127662
    39  H    0.164078
    40  H    0.143304
    41  H    0.157464
    42  H    0.161036
    43  H    0.150455
    44  H    0.430055
    45  H    0.188964
    46  H    0.151942
    47  H    0.135540
    48  H    0.159913
    49  H    0.157392
    50  H    0.154146
    51  H    0.184287
    52  H    0.136808
    53  H    0.195066
    54  H    0.144812
    55  H    0.155856
    56  H    0.151706
    57  H    0.162416
    58  H    0.162899
    59  H    0.157597
    60  H    0.153960
    61  H    0.156430
    62  C   -0.460830
    63  H    0.138651
    64  H    0.139377
    65  H    0.174253
 Sum of Mulliken atomic charges =   0.00000

 Dipole moment (field-independent basis, Debye):
    X=              3.0031    Y=              4.0786    Z=              3.1573  Tot=              5.9684
 Quadrupole moment (field-independent basis, Debye-Ang):
   XX=           -176.8773   YY=           -178.2825   ZZ=           -191.0099
   XY=             -2.7912   XZ=             -7.8915   YZ=             -2.3302

 Normal termination of Gaussian 09 at Wed Mar 24 15:45:53 2021.
