 Gaussian 09, Revision B.01,
 Gaussian 09:  EM64L-G09RevB.01 12-Aug-2010

 ---------------------------------------
 # opt rb3lyp/6-31g(d) geom=connectivity
 ---------------------------------------

 -------------------
 Title Card Required
 -------------------
 Symbolic Z-matrix:
 Charge =  0 Multiplicity = 1

 SCF Done:  E(RB3LYP) =  -1387.30335820     A.U. after   16 cycles
 SCF Done:  E(RB3LYP) =  -1387.31592377     A.U. after   13 cycles
 SCF Done:  E(RB3LYP) =  -1387.31784465     A.U. after   13 cycles
 SCF Done:  E(RB3LYP) =  -1387.31663374     A.U. after   13 cycles
 SCF Done:  E(RB3LYP) =  -1387.31853025     A.U. after   13 cycles
 SCF Done:  E(RB3LYP) =  -1387.31895592     A.U. after   12 cycles
 SCF Done:  E(RB3LYP) =  -1387.31838155     A.U. after   13 cycles
 SCF Done:  E(RB3LYP) =  -1387.31920464     A.U. after   12 cycles
 SCF Done:  E(RB3LYP) =  -1387.31926571     A.U. after   12 cycles
 SCF Done:  E(RB3LYP) =  -1387.31928264     A.U. after   12 cycles
 SCF Done:  E(RB3LYP) =  -1387.31929220     A.U. after   10 cycles
 SCF Done:  E(RB3LYP) =  -1387.31929438     A.U. after    9 cycles
 SCF Done:  E(RB3LYP) =  -1387.31929231     A.U. after   10 cycles
 SCF Done:  E(RB3LYP) =  -1387.31929362     A.U. after    9 cycles
 SCF Done:  E(RB3LYP) =  -1387.31929285     A.U. after    7 cycles
 SCF Done:  E(RB3LYP) =  -1387.31929224     A.U. after    7 cycles
 Optimization completed.
    -- Stationary point found.

                         Standard orientation:
 ---------------------------------------------------------------------
 Center     Atomic      Atomic             Coordinates (Angstroms)
 Number     Number       Type             X           Y           Z
 ---------------------------------------------------------------------
      1          6           0       -0.580300   -2.087714    2.464583
      2          6           0       -0.607609   -0.819491    2.892795
      3          6           0       -1.177718    0.288822    2.031702
      4          6           0       -1.426462   -0.071691    0.532880
      5          6           0       -0.992375   -1.468257    0.020379
      6          6           0       -1.107350   -2.540830    1.131167
      7          6           0       -0.771280    1.089183   -0.260165
      8          6           0        0.691446    0.849221   -0.579969
      9          6           0        1.253634   -0.370459   -0.807208
     10          6           0        0.429337   -1.568555   -0.601032
     11          6           0        2.699290   -0.464469   -1.242975
     12          8           0        3.131294    0.351722   -2.040862
     13          6           0        3.585739   -1.561593   -0.647425
     14          6           0        5.018331   -1.519244   -1.216876
     15          6           0        3.544290   -1.534291    0.895124
     16          8           0        0.826218   -2.690448   -0.907099
     17          6           0       -0.623526    2.294644    0.692207
     18          6           0        0.546980    3.083756    0.060246
     19          8           0        1.368678    1.997597   -0.541773
     20          6           0       -0.329064    1.594756    2.034028
     21          8           0       -1.439181    1.345218   -1.480961
     22          6           0       -2.038684   -1.735781   -1.094106
     23          6           0       -3.312421   -1.126941   -0.514234
     24          8           0       -2.850967    0.009511    0.275212
     25          6           0       -4.395017   -0.644970   -1.458500
     26          6           0       -5.577534    0.007945   -0.783255
     27          6           0       -4.333365   -0.816455   -2.782664
     28          6           0        0.102185    4.013393   -1.070912
     29          6           0        1.468356    3.816576    1.031870
     30          1           0       -1.539571    2.891676    0.736064
     31          1           0       -2.173418    0.541491    2.423471
     32          6           0       -0.150798   -0.438309    4.279534
     33          1           0       -0.200671   -2.861716    3.130478
     34          1           0       -2.160097   -2.838857    1.247179
     35          1           0       -0.576838   -3.431280    0.782436
     36          1           0        3.121526   -2.504779   -0.960279
     37          1           0        5.502368   -2.472762   -0.963999
     38          1           0        4.951816   -1.481767   -2.309945
     39          1           0        4.200395   -2.313961    1.299094
     40          1           0        2.535766   -1.719870    1.276502
     41          1           0        3.885064   -0.572334    1.294123
     42          1           0       -0.549791    2.228003    2.898039
     43          1           0        0.733192    1.333209    2.091813
     44          1           0       -2.383329    1.192630   -1.277301
     45          1           0       -2.133495   -2.802620   -1.312554
     46          1           0       -1.747784   -1.215211   -2.010278
     47          1           0       -3.778263   -1.833587    0.190504
     48          1           0       -6.063849   -0.689563   -0.087368
     49          1           0       -5.262070    0.872908   -0.188659
     50          1           0       -6.323477    0.337417   -1.512396
     51          1           0       -3.495743   -1.299147   -3.275550
     52          1           0       -5.141589   -0.482133   -3.428289
     53          1           0       -0.546981    3.489351   -1.774239
     54          1           0        0.979234    4.390105   -1.606550
     55          1           0       -0.442435    4.870140   -0.657276
     56          1           0        0.914698    4.613370    1.540851
     57          1           0        2.299073    4.273538    0.485239
     58          1           0        1.887496    3.147786    1.787565
     59          1           0        0.177434   -1.317867    4.841761
     60          1           0        0.681013    0.277239    4.260816
     61          1           0       -0.963030    0.040363    4.845240
     62          6           0        5.902996   -0.363092   -0.733199
     63          1           0        6.071269   -0.400568    0.349580
     64          1           0        5.453087    0.602384   -0.980061
     65          1           0        6.886192   -0.409320   -1.216123
 ---------------------------------------------------------------------

 The electronic state is 1-A.
 Alpha  occ. eigenvalues --  -19.19631 -19.16736 -19.15826 -19.12745 -19.12102
 Alpha  occ. eigenvalues --  -10.27453 -10.27238 -10.26650 -10.26057 -10.25833
 Alpha  occ. eigenvalues --  -10.25811 -10.25233 -10.21395 -10.20829 -10.20652
 Alpha  occ. eigenvalues --  -10.20587 -10.20109 -10.19787 -10.19554 -10.19143
 Alpha  occ. eigenvalues --  -10.19060 -10.18989 -10.18942 -10.18922 -10.18848
 Alpha  occ. eigenvalues --  -10.18499 -10.17985 -10.17524 -10.16917 -10.16336
 Alpha  occ. eigenvalues --  -10.15305  -1.09326  -1.05943  -1.02991  -1.02484
 Alpha  occ. eigenvalues --   -1.01971  -0.86836  -0.83656  -0.82420  -0.81458
 Alpha  occ. eigenvalues --   -0.80346  -0.78920  -0.76648  -0.74392  -0.73281
 Alpha  occ. eigenvalues --   -0.71929  -0.70846  -0.69905  -0.69536  -0.67969
 Alpha  occ. eigenvalues --   -0.65222  -0.64122  -0.63496  -0.62027  -0.60716
 Alpha  occ. eigenvalues --   -0.59480  -0.58343  -0.56965  -0.54537  -0.53534
 Alpha  occ. eigenvalues --   -0.52706  -0.51813  -0.50826  -0.50368  -0.49286
 Alpha  occ. eigenvalues --   -0.48201  -0.47137  -0.46631  -0.46275  -0.45845
 Alpha  occ. eigenvalues --   -0.45274  -0.44767  -0.44541  -0.43567  -0.43401
 Alpha  occ. eigenvalues --   -0.42607  -0.42292  -0.41914  -0.41639  -0.41428
 Alpha  occ. eigenvalues --   -0.40814  -0.40664  -0.40383  -0.39871  -0.39444
 Alpha  occ. eigenvalues --   -0.39116  -0.38437  -0.38329  -0.38133  -0.37731
 Alpha  occ. eigenvalues --   -0.37571  -0.37484  -0.37182  -0.36915  -0.36684
 Alpha  occ. eigenvalues --   -0.36502  -0.36080  -0.35202  -0.34844  -0.34266
 Alpha  occ. eigenvalues --   -0.33711  -0.33605  -0.32768  -0.32106  -0.31820
 Alpha  occ. eigenvalues --   -0.31380  -0.30983  -0.30786  -0.28107  -0.26719
 Alpha  occ. eigenvalues --   -0.26312  -0.24529  -0.24308  -0.23555  -0.22404
 Alpha virt. eigenvalues --   -0.04890  -0.01333   0.00270   0.01755   0.06102
 Alpha virt. eigenvalues --    0.07777   0.08120   0.08867   0.09327   0.10196
 Alpha virt. eigenvalues --    0.10511   0.10849   0.11325   0.12098   0.12548

 Mulliken atomic charges:
              1
     1  C   -0.190372
     2  C    0.190823
     3  C   -0.188282
     4  C    0.323538
     5  C   -0.055757
     6  C   -0.333795
     7  C    0.198206
     8  C    0.403328
     9  C   -0.082967
    10  C    0.422413
    11  C    0.420699
    12  O   -0.454198
    13  C   -0.174472
    14  C   -0.245091
    15  C   -0.467208
    16  O   -0.517170
    17  C   -0.162899
    18  C    0.300774
    19  O   -0.505398
    20  C   -0.322189
    21  O   -0.653484
    22  C   -0.325351
    23  C    0.095110
    24  O   -0.591428
    25  C    0.180554
    26  C   -0.507966
    27  C   -0.392323
    28  C   -0.467591
    29  C   -0.459736
    30  H    0.144569
    31  H    0.165710
    32  C   -0.519484
    33  H    0.123578
    34  H    0.147342
    35  H    0.183879
    36  H    0.185284
    37  H    0.120841
    38  H    0.146983
    39  H    0.148043
    40  H    0.152406
    41  H    0.146520
    42  H    0.151749
    43  H    0.163102
    44  H    0.414182
    45  H    0.168117
    46  H    0.173921
    47  H    0.138030
    48  H    0.156166
    49  H    0.170574
    50  H    0.154954
    51  H    0.154911
    52  H    0.143010
    53  H    0.194633
    54  H    0.163590
    55  H    0.141160
    56  H    0.150439
    57  H    0.168789
    58  H    0.158797
    59  H    0.158427
    60  H    0.157435
    61  H    0.152024
    62  C   -0.452513
    63  H    0.131751
    64  H    0.168059
    65  H    0.135256
 Sum of Mulliken atomic charges =   0.00000

 Dipole moment (field-independent basis, Debye):
    X=             -4.5460    Y=              1.9055    Z=              4.2381  Tot=              6.5007
 Quadrupole moment (field-independent basis, Debye-Ang):
   XX=           -184.0419   YY=           -178.5576   ZZ=           -185.8280
   XY=              0.6612   XZ=             10.3814   YZ=              3.1579

 Normal termination of Gaussian 09 at Wed Mar 24 15:20:42 2021.
