 Gaussian 09, Revision B.01,
 Gaussian 09:  EM64L-G09RevB.01 12-Aug-2010

 ---------------------------------------
 # opt rb3lyp/6-31g(d) geom=connectivity
 ---------------------------------------

 -------------------
 Title Card Required
 -------------------
 Symbolic Z-matrix:
 Charge =  0 Multiplicity = 1

 SCF Done:  E(RB3LYP) =  -1387.30204926     A.U. after   16 cycles
 SCF Done:  E(RB3LYP) =  -1387.31412840     A.U. after   13 cycles
 SCF Done:  E(RB3LYP) =  -1387.31599612     A.U. after   13 cycles
 SCF Done:  E(RB3LYP) =  -1387.31303575     A.U. after   13 cycles
 SCF Done:  E(RB3LYP) =  -1387.31651742     A.U. after   13 cycles
 SCF Done:  E(RB3LYP) =  -1387.31703455     A.U. after   12 cycles
 SCF Done:  E(RB3LYP) =  -1387.31721686     A.U. after   13 cycles
 SCF Done:  E(RB3LYP) =  -1387.31729876     A.U. after   12 cycles
 SCF Done:  E(RB3LYP) =  -1387.31742598     A.U. after   11 cycles
 SCF Done:  E(RB3LYP) =  -1387.31747215     A.U. after   12 cycles
 SCF Done:  E(RB3LYP) =  -1387.31747533     A.U. after   11 cycles
 SCF Done:  E(RB3LYP) =  -1387.31748597     A.U. after   10 cycles
 SCF Done:  E(RB3LYP) =  -1387.31748617     A.U. after   10 cycles
 SCF Done:  E(RB3LYP) =  -1387.31748456     A.U. after   10 cycles
 SCF Done:  E(RB3LYP) =  -1387.31748376     A.U. after    8 cycles
 SCF Done:  E(RB3LYP) =  -1387.31748317     A.U. after    8 cycles
 SCF Done:  E(RB3LYP) =  -1387.31748307     A.U. after    7 cycles
 Optimization completed.
    -- Stationary point found.

                         Standard orientation:
 ---------------------------------------------------------------------
 Center     Atomic      Atomic             Coordinates (Angstroms)
 Number     Number       Type             X           Y           Z
 ---------------------------------------------------------------------
      1          6           0       -1.982313    0.201203    2.832523
      2          6           0       -2.468801    1.251494    2.160476
      3          6           0       -1.959646    1.567100    0.772959
      4          6           0       -1.426159    0.354823   -0.059360
      5          6           0       -1.077256   -0.950768    0.736059
      6          6           0       -0.927081   -0.712024    2.268918
      7          6           0       -0.243830    0.945511   -0.894060
      8          6           0        1.120881    0.585948   -0.329496
      9          6           0        1.423321   -0.636128    0.165016
     10          6           0        0.279940   -1.576937    0.306947
     11          6           0        2.764577   -1.074350    0.683242
     12          8           0        2.810892   -1.713257    1.722828
     13          6           0        4.018485   -0.701787   -0.110284
     14          6           0        5.314504   -1.117517    0.614730
     15          6           0        3.923128   -1.236680   -1.555910
     16          8           0        0.407234   -2.784524    0.212717
     17          6           0       -0.232440    2.476755   -0.689138
     18          6           0        1.253856    2.850536   -0.882978
     19          8           0        1.963136    1.629236   -0.417896
     20          6           0       -0.820791    2.619415    0.728315
     21          8           0       -0.276644    0.520082   -2.241935
     22          6           0       -2.248846   -1.909403    0.407607
     23          6           0       -3.233769   -1.075812   -0.433340
     24          8           0       -2.424442   -0.041993   -1.012090
     25          6           0       -3.992310   -1.841400   -1.491462
     26          6           0       -4.871557   -2.945141   -0.955909
     27          6           0       -3.910852   -1.553374   -2.792341
     28          6           0        1.612667    3.057810   -2.356445
     29          6           0        1.774075    3.995928   -0.020103
     30          1           0       -0.866752    2.973589   -1.429284
     31          1           0       -2.788632    1.967121    0.172922
     32          6           0       -3.500558    2.186164    2.737282
     33          1           0       -2.333354   -0.001388    3.843439
     34          1           0       -0.952489   -1.688702    2.763854
     35          1           0        0.072611   -0.307772    2.484069
     36          1           0        4.010555    0.395056   -0.176862
     37          1           0        5.263068   -0.751236    1.646700
     38          1           0        6.147394   -0.585525    0.134216
     39          1           0        4.828872   -0.970988   -2.113291
     40          1           0        3.063906   -0.811732   -2.083233
     41          1           0        3.821423   -2.326537   -1.576127
     42          1           0       -0.069702    2.375785    1.489291
     43          1           0       -1.181190    3.630352    0.941890
     44          1           0       -1.141297    0.073406   -2.344459
     45          1           0       -2.724885   -2.299914    1.310775
     46          1           0       -1.863540   -2.760629   -0.159920
     47          1           0       -3.965697   -0.596427    0.238107
     48          1           0       -5.592004   -2.559634   -0.221094
     49          1           0       -5.434383   -3.425666   -1.761095
     50          1           0       -4.282835   -3.718218   -0.445331
     51          1           0       -4.472715   -2.122497   -3.528145
     52          1           0       -3.295135   -0.743066   -3.166814
     53          1           0        2.699311    3.127688   -2.470999
     54          1           0        1.168568    3.990353   -2.723057
     55          1           0        1.240569    2.232388   -2.967604
     56          1           0        1.612728    3.809132    1.044546
     57          1           0        2.847806    4.133052   -0.183557
     58          1           0        1.267028    4.928420   -0.291185
     59          1           0       -3.794313    1.886285    3.748158
     60          1           0       -3.124697    3.217475    2.788863
     61          1           0       -4.404495    2.215563    2.112995
     62          6           0        5.622918   -2.620071    0.635615
     63          1           0        5.773040   -3.021453   -0.373125
     64          1           0        6.543230   -2.809182    1.200632
     65          1           0        4.813745   -3.179219    1.112551
 ---------------------------------------------------------------------

 The electronic state is 1-A.
 Alpha  occ. eigenvalues --  -19.19859 -19.17160 -19.15221 -19.12953 -19.12526
 Alpha  occ. eigenvalues --  -10.26934 -10.26899 -10.26880 -10.26407 -10.26271
 Alpha  occ. eigenvalues --  -10.26095 -10.24888 -10.21295 -10.20701 -10.20574
 Alpha  occ. eigenvalues --  -10.20423 -10.20090 -10.19930 -10.19539 -10.19418
 Alpha  occ. eigenvalues --  -10.19144 -10.18887 -10.18830 -10.18827 -10.18606
 Alpha  occ. eigenvalues --  -10.18498 -10.18240 -10.17717 -10.16878 -10.16765
 Alpha  occ. eigenvalues --  -10.15343  -1.09185  -1.06694  -1.03327  -1.02423
 Alpha  occ. eigenvalues --   -1.02106  -0.87024  -0.83884  -0.82183  -0.81357
 Alpha  occ. eigenvalues --   -0.80108  -0.79232  -0.76823  -0.73955  -0.73161
 Alpha  occ. eigenvalues --   -0.72287  -0.71050  -0.70296  -0.69012  -0.68416
 Alpha  occ. eigenvalues --   -0.64877  -0.64216  -0.63621  -0.62111  -0.60898
 Alpha  occ. eigenvalues --   -0.59051  -0.58421  -0.56816  -0.54990  -0.53206
 Alpha  occ. eigenvalues --   -0.53094  -0.51781  -0.51019  -0.49769  -0.49335
 Alpha  occ. eigenvalues --   -0.48111  -0.47262  -0.46914  -0.46576  -0.46092
 Alpha  occ. eigenvalues --   -0.45094  -0.44421  -0.44319  -0.44118  -0.43013
 Alpha  occ. eigenvalues --   -0.42557  -0.42368  -0.42207  -0.42011  -0.41523
 Alpha  occ. eigenvalues --   -0.40940  -0.40607  -0.40495  -0.40016  -0.39305
 Alpha  occ. eigenvalues --   -0.39246  -0.39042  -0.38673  -0.38445  -0.38285
 Alpha  occ. eigenvalues --   -0.37739  -0.37598  -0.36944  -0.36650  -0.36247
 Alpha  occ. eigenvalues --   -0.35911  -0.35550  -0.35384  -0.34872  -0.34583
 Alpha  occ. eigenvalues --   -0.33814  -0.33659  -0.33005  -0.32338  -0.32039
 Alpha  occ. eigenvalues --   -0.31503  -0.31066  -0.30841  -0.28295  -0.27482
 Alpha  occ. eigenvalues --   -0.25101  -0.24441  -0.24385  -0.23419  -0.22625
 Alpha virt. eigenvalues --   -0.04204  -0.01507   0.01052   0.01960   0.05017
 Alpha virt. eigenvalues --    0.06859   0.07978   0.08682   0.09091   0.10236
 Alpha virt. eigenvalues --    0.10388   0.10766   0.10905   0.11350   0.12234

 Mulliken atomic charges:
              1
     1  C   -0.194458
     2  C    0.197734
     3  C   -0.198251
     4  C    0.307815
     5  C   -0.028508
     6  C   -0.328150
     7  C    0.199180
     8  C    0.400810
     9  C   -0.092594
    10  C    0.398377
    11  C    0.429868
    12  O   -0.459055
    13  C   -0.178458
    14  C   -0.244537
    15  C   -0.461476
    16  O   -0.465800
    17  C   -0.156349
    18  C    0.300401
    19  O   -0.539730
    20  C   -0.309065
    21  O   -0.673776
    22  C   -0.329336
    23  C    0.116635
    24  O   -0.588495
    25  C    0.183911
    26  C   -0.518745
    27  C   -0.394824
    28  C   -0.467200
    29  C   -0.461335
    30  H    0.149189
    31  H    0.149877
    32  C   -0.521381
    33  H    0.125623
    34  H    0.166682
    35  H    0.172968
    36  H    0.160688
    37  H    0.142198
    38  H    0.120157
    39  H    0.144681
    40  H    0.161162
    41  H    0.164275
    42  H    0.161219
    43  H    0.151602
    44  H    0.430021
    45  H    0.148918
    46  H    0.188915
    47  H    0.135384
    48  H    0.154097
    49  H    0.160531
    50  H    0.169767
    51  H    0.136372
    52  H    0.145420
    53  H    0.155845
    54  H    0.145597
    55  H    0.195946
    56  H    0.161574
    57  H    0.162798
    58  H    0.152319
    59  H    0.158404
    60  H    0.155300
    61  H    0.155377
    62  C   -0.452944
    63  H    0.136361
    64  H    0.134738
    65  H    0.175730
 Sum of Mulliken atomic charges =   0.00000

 Dipole moment (field-independent basis, Debye):
    X=             -3.6422    Y=              5.4009    Z=             -0.2086  Tot=              6.5176
 Quadrupole moment (field-independent basis, Debye-Ang):
   XX=           -178.6395   YY=           -181.7763   ZZ=           -186.1519
   XY=             11.1515   XZ=             -8.8359   YZ=              3.2104

 Normal termination of Gaussian 09 at Wed Mar 24 15:53:36 2021.
