 Gaussian 09, Revision B.01,
 Gaussian 09:  EM64L-G09RevB.01 12-Aug-2010

 ---------------------------------------
 # opt rb3lyp/6-31g(d) geom=connectivity
 ---------------------------------------

 -------------------
 Title Card Required
 -------------------
 Symbolic Z-matrix:
 Charge =  0 Multiplicity = 1

 SCF Done:  E(RB3LYP) =  -1387.30461439     A.U. after   16 cycles
 SCF Done:  E(RB3LYP) =  -1387.31687515     A.U. after   13 cycles
 SCF Done:  E(RB3LYP) =  -1387.31921451     A.U. after   13 cycles
 SCF Done:  E(RB3LYP) =  -1387.31945304     A.U. after   13 cycles
 SCF Done:  E(RB3LYP) =  -1387.31956832     A.U. after   13 cycles
 SCF Done:  E(RB3LYP) =  -1387.32010359     A.U. after   12 cycles
 SCF Done:  E(RB3LYP) =  -1387.32016826     A.U. after   12 cycles
 SCF Done:  E(RB3LYP) =  -1387.32007505     A.U. after   12 cycles
 SCF Done:  E(RB3LYP) =  -1387.32021909     A.U. after   12 cycles
 SCF Done:  E(RB3LYP) =  -1387.32025028     A.U. after   12 cycles
 SCF Done:  E(RB3LYP) =  -1387.32026859     A.U. after   13 cycles
 SCF Done:  E(RB3LYP) =  -1387.32029068     A.U. after   12 cycles
 SCF Done:  E(RB3LYP) =  -1387.32029968     A.U. after   10 cycles
 SCF Done:  E(RB3LYP) =  -1387.32027858     A.U. after   13 cycles
 SCF Done:  E(RB3LYP) =  -1387.32030817     A.U. after   13 cycles
 SCF Done:  E(RB3LYP) =  -1387.32030918     A.U. after   10 cycles
 SCF Done:  E(RB3LYP) =  -1387.32030682     A.U. after   11 cycles
 SCF Done:  E(RB3LYP) =  -1387.32030595     A.U. after    8 cycles
 SCF Done:  E(RB3LYP) =  -1387.32030582     A.U. after    7 cycles
 SCF Done:  E(RB3LYP) =  -1387.32030602     A.U. after    6 cycles
 Optimization completed.
    -- Stationary point found.

                         Standard orientation:
 ---------------------------------------------------------------------
 Center     Atomic      Atomic             Coordinates (Angstroms)
 Number     Number       Type             X           Y           Z
 ---------------------------------------------------------------------
      1          6           0       -0.318824   -1.189449    2.992109
      2          6           0       -0.699160    0.092889    3.030658
      3          6           0       -1.429781    0.732138    1.867641
      4          6           0       -1.422296   -0.075046    0.530598
      5          6           0       -0.632336   -1.406007    0.461288
      6          6           0       -0.582762   -2.116081    1.838012
      7          6           0       -0.958941    0.946901   -0.540149
      8          6           0        0.549898    1.010877   -0.704018
      9          6           0        1.394402   -0.053064   -0.550676
     10          6           0        0.818170   -1.324259   -0.089428
     11          6           0        2.866520    0.102738   -0.822954
     12          8           0        3.250810    0.956786   -1.608629
     13          6           0        3.893549   -0.767640   -0.087485
     14          6           0        4.473653   -1.790319   -1.095883
     15          6           0        4.973783    0.144907    0.519063
     16          8           0        1.456293   -2.373795   -0.118710
     17          6           0       -1.211792    2.364328    0.015476
     18          6           0       -0.186659    3.219815   -0.762308
     19          8           0        0.933288    2.257571   -0.963089
     20          6           0       -0.927295    2.164465    1.517802
     21          8           0       -1.514503    0.671152   -1.811433
     22          6           0       -1.484854   -2.235264   -0.536453
     23          6           0       -2.909940   -1.814401   -0.194699
     24          8           0       -2.792587   -0.414942    0.197456
     25          6           0       -3.985221   -1.922143   -1.256160
     26          6           0       -5.339627   -1.400750   -0.839335
     27          6           0       -3.768803   -2.470647   -2.455685
     28          6           0       -0.684577    3.647619   -2.144654
     29          6           0        0.412608    4.407158   -0.013354
     30          1           0       -2.239468    2.693186   -0.166400
     31          1           0       -2.492644    0.810042    2.136812
     32          6           0       -0.492458    0.947088    4.257211
     33          1           0        0.171370   -1.621179    3.863880
     34          1           0       -1.534786   -2.639483    2.014042
     35          1           0        0.181393   -2.896469    1.777641
     36          1           0        3.397132   -1.325983    0.710491
     37          1           0        3.637030   -2.314193   -1.571000
     38          1           0        4.996736   -1.235727   -1.885771
     39          1           0        4.538859    0.848223    1.239395
     40          1           0        5.730586   -0.443351    1.047805
     41          1           0        5.465171    0.729414   -0.264326
     42          1           0        0.151096    2.220344    1.701189
     43          1           0       -1.397282    2.930004    2.141710
     44          1           0       -2.415358    0.346010   -1.612843
     45          1           0       -1.312478   -3.308226   -0.420327
     46          1           0       -1.237675   -1.951416   -1.562915
     47          1           0       -3.261399   -2.365551    0.692165
     48          1           0       -6.073408   -1.502998   -1.644201
     49          1           0       -5.715043   -1.946270    0.037453
     50          1           0       -5.281859   -0.345404   -0.549269
     51          1           0       -2.803457   -2.863177   -2.758389
     52          1           0       -4.571206   -2.556462   -3.184105
     53          1           0        0.143501    4.072673   -2.720572
     54          1           0       -1.460203    4.415162   -2.039926
     55          1           0       -1.100540    2.799510   -2.690970
     56          1           0        1.180174    4.886250   -0.628775
     57          1           0       -0.368432    5.146222    0.196979
     58          1           0        0.873174    4.109809    0.931565
     59          1           0       -0.017169    0.375288    5.060111
     60          1           0        0.135697    1.823589    4.052630
     61          1           0       -1.450224    1.330636    4.637250
     62          6           0        5.407054   -2.829139   -0.466621
     63          1           0        4.891576   -3.394092    0.319668
     64          1           0        5.747102   -3.547685   -1.221622
     65          1           0        6.299757   -2.373154   -0.024091
 ---------------------------------------------------------------------

 The electronic state is 1-A.
 Alpha  occ. eigenvalues --  -19.19849 -19.16780 -19.15906 -19.12749 -19.11543
 Alpha  occ. eigenvalues --  -10.27719 -10.27184 -10.26682 -10.25901 -10.25844
 Alpha  occ. eigenvalues --  -10.25658 -10.25239 -10.21401 -10.20848 -10.20687
 Alpha  occ. eigenvalues --  -10.20571 -10.20115 -10.19702 -10.19517 -10.19230
 Alpha  occ. eigenvalues --  -10.19087 -10.19044 -10.18947 -10.18931 -10.18826
 Alpha  occ. eigenvalues --  -10.18444 -10.18041 -10.17216 -10.16280 -10.15910
 Alpha  occ. eigenvalues --  -10.15852  -1.09561  -1.06015  -1.02977  -1.02567
 Alpha  occ. eigenvalues --   -1.01527  -0.86838  -0.83676  -0.82439  -0.81423
 Alpha  occ. eigenvalues --   -0.80354  -0.78586  -0.76694  -0.74401  -0.73282
 Alpha  occ. eigenvalues --   -0.71816  -0.70772  -0.69960  -0.69546  -0.68002
 Alpha  occ. eigenvalues --   -0.65446  -0.64022  -0.63518  -0.61612  -0.60689
 Alpha  occ. eigenvalues --   -0.59507  -0.57820  -0.56969  -0.54519  -0.53549
 Alpha  occ. eigenvalues --   -0.52788  -0.51887  -0.50854  -0.50451  -0.49318
 Alpha  occ. eigenvalues --   -0.48298  -0.47380  -0.46633  -0.46367  -0.45798
 Alpha  occ. eigenvalues --   -0.45299  -0.44551  -0.44278  -0.43454  -0.43328
 Alpha  occ. eigenvalues --   -0.42688  -0.42119  -0.41760  -0.41622  -0.41343
 Alpha  occ. eigenvalues --   -0.40688  -0.40585  -0.40464  -0.39734  -0.39466
 Alpha  occ. eigenvalues --   -0.39152  -0.38469  -0.38199  -0.38067  -0.37859
 Alpha  occ. eigenvalues --   -0.37683  -0.37417  -0.37309  -0.36961  -0.36779
 Alpha  occ. eigenvalues --   -0.36465  -0.35209  -0.34717  -0.34500  -0.34201
 Alpha  occ. eigenvalues --   -0.33729  -0.33634  -0.32912  -0.32720  -0.32156
 Alpha  occ. eigenvalues --   -0.31435  -0.30475  -0.30100  -0.28156  -0.26723
 Alpha  occ. eigenvalues --   -0.26388  -0.24603  -0.24329  -0.23498  -0.22165
 Alpha virt. eigenvalues --   -0.05163  -0.01253   0.00267   0.01847   0.06347
 Alpha virt. eigenvalues --    0.07926   0.08410   0.08862   0.09599   0.10354
 Alpha virt. eigenvalues --    0.10731   0.11035   0.11318   0.12032   0.12516

 Mulliken atomic charges:
              1
     1  C   -0.191140
     2  C    0.191445
     3  C   -0.188402
     4  C    0.323504
     5  C   -0.049601
     6  C   -0.334251
     7  C    0.197524
     8  C    0.400343
     9  C   -0.072736
    10  C    0.407000
    11  C    0.413156
    12  O   -0.471565
    13  C   -0.133582
    14  C   -0.252211
    15  C   -0.452218
    16  O   -0.514124
    17  C   -0.162616
    18  C    0.298537
    19  O   -0.493282
    20  C   -0.322124
    21  O   -0.653049
    22  C   -0.324026
    23  C    0.093879
    24  O   -0.591065
    25  C    0.183239
    26  C   -0.507866
    27  C   -0.393753
    28  C   -0.468444
    29  C   -0.459652
    30  H    0.145267
    31  H    0.165354
    32  C   -0.519375
    33  H    0.122779
    34  H    0.147710
    35  H    0.181945
    36  H    0.136733
    37  H    0.154564
    38  H    0.141923
    39  H    0.133864
    40  H    0.140349
    41  H    0.164872
    42  H    0.162700
    43  H    0.152010
    44  H    0.413811
    45  H    0.168692
    46  H    0.171915
    47  H    0.137574
    48  H    0.154825
    49  H    0.155998
    50  H    0.170696
    51  H    0.154565
    52  H    0.142835
    53  H    0.164744
    54  H    0.141880
    55  H    0.194317
    56  H    0.170681
    57  H    0.150288
    58  H    0.159717
    59  H    0.158265
    60  H    0.156723
    61  H    0.151992
    62  C   -0.450543
    63  H    0.146669
    64  H    0.140106
    65  H    0.140634
 Sum of Mulliken atomic charges =   0.00000

 Dipole moment (field-independent basis, Debye):
    X=             -5.4596    Y=              1.6480    Z=              3.0887  Tot=              6.4857
 Quadrupole moment (field-independent basis, Debye-Ang):
   XX=           -186.7614   YY=           -175.8733   ZZ=           -184.3717
   XY=             -0.4463   XZ=              8.0556   YZ=              3.9883

 Normal termination of Gaussian 09 at Wed Mar 24 14:16:07 2021.
