 Gaussian 09, Revision B.01,
 Gaussian 09:  EM64L-G09RevB.01 12-Aug-2010

 ---------------------------------------
 # opt rb3lyp/6-31g(d) geom=connectivity
 ---------------------------------------

 -------------------
 Title Card Required
 -------------------
 Symbolic Z-matrix:
 Charge =  0 Multiplicity = 1

 SCF Done:  E(RB3LYP) =  -1387.30301972     A.U. after   16 cycles
 SCF Done:  E(RB3LYP) =  -1387.31507701     A.U. after   13 cycles
 SCF Done:  E(RB3LYP) =  -1387.31729150     A.U. after   13 cycles
 SCF Done:  E(RB3LYP) =  -1387.31766708     A.U. after   13 cycles
 SCF Done:  E(RB3LYP) =  -1387.31758372     A.U. after   13 cycles
 SCF Done:  E(RB3LYP) =  -1387.31812805     A.U. after   13 cycles
 SCF Done:  E(RB3LYP) =  -1387.31814135     A.U. after   11 cycles
 SCF Done:  E(RB3LYP) =  -1387.31821063     A.U. after   11 cycles
 SCF Done:  E(RB3LYP) =  -1387.31823904     A.U. after   10 cycles
 SCF Done:  E(RB3LYP) =  -1387.31826822     A.U. after   11 cycles
 SCF Done:  E(RB3LYP) =  -1387.31847436     A.U. after   10 cycles
 SCF Done:  E(RB3LYP) =  -1387.31847983     A.U. after   10 cycles
 SCF Done:  E(RB3LYP) =  -1387.31848337     A.U. after   10 cycles
 SCF Done:  E(RB3LYP) =  -1387.31848437     A.U. after   10 cycles
 SCF Done:  E(RB3LYP) =  -1387.31848488     A.U. after   10 cycles
 SCF Done:  E(RB3LYP) =  -1387.31848524     A.U. after   10 cycles
 SCF Done:  E(RB3LYP) =  -1387.31848588     A.U. after   10 cycles
 SCF Done:  E(RB3LYP) =  -1387.31848626     A.U. after   10 cycles
 SCF Done:  E(RB3LYP) =  -1387.31848517     A.U. after   12 cycles
 SCF Done:  E(RB3LYP) =  -1387.31848527     A.U. after    9 cycles
 Optimization completed.
    -- Stationary point found.

                         Standard orientation:
 ---------------------------------------------------------------------
 Center     Atomic      Atomic             Coordinates (Angstroms)
 Number     Number       Type             X           Y           Z
 ---------------------------------------------------------------------
      1          6           0       -2.029091    0.483113    2.800037
      2          6           0       -2.415775    1.526697    2.055937
      3          6           0       -1.870995    1.705405    0.657550
      4          6           0       -1.436393    0.400560   -0.086045
      5          6           0       -1.209906   -0.876941    0.794001
      6          6           0       -1.054505   -0.554332    2.311000
      7          6           0       -0.197684    0.832111   -0.938755
      8          6           0        1.125025    0.400206   -0.325203
      9          6           0        1.314942   -0.808563    0.251352
     10          6           0        0.093252   -1.639866    0.424337
     11          6           0        2.603190   -1.322786    0.828381
     12          8           0        2.584561   -1.892424    1.907724
     13          6           0        3.888674   -1.161454    0.017140
     14          6           0        5.128695   -1.391363    0.897544
     15          6           0        3.815117   -2.120726   -1.192826
     16          8           0        0.118958   -2.857259    0.400170
     17          6           0       -0.059581    2.367717   -0.836943
     18          6           0        1.455415    2.601169   -1.028068
     19          8           0        2.050470    1.366245   -0.452959
     20          6           0       -0.647607    2.654741    0.558383
     21          8           0       -0.252154    0.317468   -2.254185
     22          6           0       -2.456413   -1.750986    0.508725
     23          6           0       -3.354505   -0.896420   -0.405518
     24          8           0       -2.455013    0.031444   -1.028375
     25          6           0       -4.153086   -1.664537   -1.432158
     26          6           0       -5.125991   -2.661473   -0.850891
     27          6           0       -4.027921   -1.463772   -2.745926
     28          6           0        1.852290    2.660530   -2.505159
     29          6           0        2.057861    3.764377   -0.246594
     30          1           0       -0.641097    2.864969   -1.618960
     31          1           0       -2.658208    2.132763    0.021277
     32          6           0       -3.366507    2.582638    2.557734
     33          1           0       -2.404070    0.378163    3.817217
     34          1           0       -1.172049   -1.491002    2.866326
     35          1           0       -0.024945   -0.227296    2.515824
     36          1           0        3.906916   -0.135495   -0.372545
     37          1           0        5.031347   -0.779242    1.802580
     38          1           0        5.132841   -2.431476    1.244630
     39          1           0        4.680140   -1.982960   -1.849203
     40          1           0        2.912271   -1.944198   -1.786435
     41          1           0        3.800925   -3.164274   -0.857716
     42          1           0        0.073945    2.403083    1.344812
     43          1           0       -0.924789    3.704168    0.697914
     44          1           0       -1.155662   -0.047412   -2.344738
     45          1           0       -2.139310   -2.670548    0.009585
     46          1           0       -2.976764   -2.033606    1.427423
     47          1           0       -4.058006   -0.319303    0.217532
     48          1           0       -5.825813   -2.176703   -0.156077
     49          1           0       -5.711687   -3.144592   -1.638042
     50          1           0       -4.609302   -3.445860   -0.282805
     51          1           0       -4.620712   -2.031587   -3.458129
     52          1           0       -3.344575   -0.727909   -3.155218
     53          1           0        2.942586    2.630323   -2.601005
     54          1           0        1.494495    3.595062   -2.952215
     55          1           0        1.420494    1.823484   -3.058357
     56          1           0        1.858993    3.681712    0.824802
     57          1           0        3.142627    3.792989   -0.391382
     58          1           0        1.641776    4.711790   -0.606363
     59          1           0       -3.693432    2.375155    3.581514
     60          1           0       -2.902758    3.578798    2.548544
     61          1           0       -4.259360    2.649388    1.920484
     62          6           0        6.454561   -1.061307    0.203141
     63          1           0        7.295121   -1.184085    0.895743
     64          1           0        6.644259   -1.712511   -0.657474
     65          1           0        6.470853   -0.024013   -0.155610
 ---------------------------------------------------------------------

 The electronic state is 1-A.
 Alpha  occ. eigenvalues --  -19.19797 -19.17132 -19.15150 -19.12968 -19.12443
 Alpha  occ. eigenvalues --  -10.26888 -10.26877 -10.26855 -10.26291 -10.26240
 Alpha  occ. eigenvalues --  -10.26052 -10.24877 -10.21275 -10.20654 -10.20536
 Alpha  occ. eigenvalues --  -10.20374 -10.20078 -10.19906 -10.19506 -10.19369
 Alpha  occ. eigenvalues --  -10.19117 -10.18849 -10.18814 -10.18807 -10.18590
 Alpha  occ. eigenvalues --  -10.18441 -10.18150 -10.17708 -10.16938 -10.16755
 Alpha  occ. eigenvalues --  -10.16583  -1.09126  -1.06666  -1.03309  -1.02373
 Alpha  occ. eigenvalues --   -1.02062  -0.86979  -0.83840  -0.82149  -0.81328
 Alpha  occ. eigenvalues --   -0.80084  -0.79413  -0.76835  -0.73941  -0.73139
 Alpha  occ. eigenvalues --   -0.72353  -0.71435  -0.70293  -0.69000  -0.68391
 Alpha  occ. eigenvalues --   -0.64878  -0.64248  -0.63589  -0.62165  -0.60853
 Alpha  occ. eigenvalues --   -0.59024  -0.58322  -0.56776  -0.54941  -0.53286
 Alpha  occ. eigenvalues --   -0.53132  -0.51744  -0.51087  -0.49877  -0.49430
 Alpha  occ. eigenvalues --   -0.48148  -0.47201  -0.46921  -0.46557  -0.46050
 Alpha  occ. eigenvalues --   -0.45069  -0.44585  -0.44238  -0.44099  -0.42907
 Alpha  occ. eigenvalues --   -0.42871  -0.42333  -0.42269  -0.41852  -0.41561
 Alpha  occ. eigenvalues --   -0.40902  -0.40609  -0.40324  -0.40172  -0.39494
 Alpha  occ. eigenvalues --   -0.39289  -0.39034  -0.38809  -0.38542  -0.38337
 Alpha  occ. eigenvalues --   -0.37790  -0.37586  -0.37436  -0.36476  -0.36210
 Alpha  occ. eigenvalues --   -0.35968  -0.35477  -0.35184  -0.34665  -0.34405
 Alpha  occ. eigenvalues --   -0.33706  -0.33631  -0.33255  -0.32861  -0.32306
 Alpha  occ. eigenvalues --   -0.31536  -0.31305  -0.30947  -0.28253  -0.27431
 Alpha  occ. eigenvalues --   -0.25090  -0.24449  -0.24357  -0.23379  -0.22644
 Alpha virt. eigenvalues --   -0.04123  -0.01497   0.01086   0.01965   0.05032
 Alpha virt. eigenvalues --    0.07021   0.08052   0.08749   0.09095   0.10218
 Alpha virt. eigenvalues --    0.10353   0.10548   0.10892   0.11357   0.12252

 Mulliken atomic charges:
              1
     1  C   -0.194555
     2  C    0.197425
     3  C   -0.198054
     4  C    0.307821
     5  C   -0.027998
     6  C   -0.328192
     7  C    0.199337
     8  C    0.399614
     9  C   -0.096029
    10  C    0.399443
    11  C    0.424851
    12  O   -0.459314
    13  C   -0.174514
    14  C   -0.240747
    15  C   -0.459268
    16  O   -0.465220
    17  C   -0.155143
    18  C    0.299452
    19  O   -0.537352
    20  C   -0.309196
    21  O   -0.674177
    22  C   -0.330399
    23  C    0.117402
    24  O   -0.588701
    25  C    0.183856
    26  C   -0.518789
    27  C   -0.394917
    28  C   -0.467098
    29  C   -0.461610
    30  H    0.148642
    31  H    0.149845
    32  C   -0.521238
    33  H    0.125539
    34  H    0.166425
    35  H    0.173743
    36  H    0.153906
    37  H    0.138395
    38  H    0.148500
    39  H    0.150317
    40  H    0.162096
    41  H    0.160148
    42  H    0.161508
    43  H    0.151386
    44  H    0.430063
    45  H    0.189238
    46  H    0.148883
    47  H    0.135307
    48  H    0.154096
    49  H    0.160492
    50  H    0.169783
    51  H    0.136369
    52  H    0.145305
    53  H    0.155526
    54  H    0.145394
    55  H    0.196237
    56  H    0.161513
    57  H    0.162821
    58  H    0.152132
    59  H    0.158341
    60  H    0.155285
    61  H    0.155296
    62  C   -0.452360
    63  H    0.143175
    64  H    0.144047
    65  H    0.135920
 Sum of Mulliken atomic charges =   0.00000

 Dipole moment (field-independent basis, Debye):
    X=             -3.0624    Y=              5.4825    Z=             -0.6541  Tot=              6.3138
 Quadrupole moment (field-independent basis, Debye-Ang):
   XX=           -175.7587   YY=           -183.2255   ZZ=           -187.0767
   XY=              8.8601   XZ=             -8.9400   YZ=              4.0665

 Normal termination of Gaussian 09 at Wed Mar 24 15:49:50 2021.
