 Gaussian 09, Revision B.01,
 Gaussian 09:  EM64L-G09RevB.01 12-Aug-2010

 ---------------------------------------
 # opt rb3lyp/6-31g(d) geom=connectivity
 ---------------------------------------

 -------------------
 Title Card Required
 -------------------
 Symbolic Z-matrix:
 Charge =  0 Multiplicity = 1

 SCF Done:  E(RB3LYP) =  -1387.30116485     A.U. after   16 cycles
 SCF Done:  E(RB3LYP) =  -1387.31322785     A.U. after   13 cycles
 SCF Done:  E(RB3LYP) =  -1387.31553616     A.U. after   13 cycles
 SCF Done:  E(RB3LYP) =  -1387.31558330     A.U. after   13 cycles
 SCF Done:  E(RB3LYP) =  -1387.31623072     A.U. after   13 cycles
 SCF Done:  E(RB3LYP) =  -1387.31677729     A.U. after   12 cycles
 SCF Done:  E(RB3LYP) =  -1387.31707363     A.U. after   13 cycles
 SCF Done:  E(RB3LYP) =  -1387.31703007     A.U. after   13 cycles
 SCF Done:  E(RB3LYP) =  -1387.31726540     A.U. after   12 cycles
 SCF Done:  E(RB3LYP) =  -1387.31735543     A.U. after   11 cycles
 SCF Done:  E(RB3LYP) =  -1387.31736708     A.U. after   13 cycles
 SCF Done:  E(RB3LYP) =  -1387.31738316     A.U. after   11 cycles
 SCF Done:  E(RB3LYP) =  -1387.31738523     A.U. after   10 cycles
 SCF Done:  E(RB3LYP) =  -1387.31738554     A.U. after    8 cycles
 SCF Done:  E(RB3LYP) =  -1387.31738552     A.U. after    8 cycles
 SCF Done:  E(RB3LYP) =  -1387.31738547     A.U. after    7 cycles
 Optimization completed.
    -- Stationary point found.

                         Standard orientation:
 ---------------------------------------------------------------------
 Center     Atomic      Atomic             Coordinates (Angstroms)
 Number     Number       Type             X           Y           Z
 ---------------------------------------------------------------------
      1          6           0       -1.665484    0.253242    2.894438
      2          6           0       -2.061246    1.387322    2.303499
      3          6           0       -1.656584    1.680710    0.876637
      4          6           0       -1.393609    0.437377   -0.034120
      5          6           0       -1.171487   -0.935038    0.688340
      6          6           0       -0.819181   -0.777739    2.196671
      7          6           0       -0.218935    0.876033   -0.969335
      8          6           0        1.124811    0.297389   -0.547685
      9          6           0        1.283401   -0.981310   -0.125826
     10          6           0        0.012994   -1.739810    0.075509
     11          6           0        2.572489   -1.658195    0.215965
     12          8           0        2.576905   -2.556041    1.046967
     13          6           0        3.869709   -1.232959   -0.482485
     14          6           0        4.758648   -0.377829    0.462805
     15          6           0        4.596866   -2.480903   -1.011049
     16          8           0       -0.081209   -2.935415   -0.124977
     17          6           0        0.039268    2.380627   -0.733799
     18          6           0        1.540576    2.538467   -1.057687
     19          8           0        2.097018    1.213882   -0.670358
     20          6           0       -0.385998    2.559562    0.736873
     21          8           0       -0.444450    0.507691   -2.314523
     22          6           0       -2.509723   -1.686239    0.477170
     23          6           0       -3.426793   -0.688821   -0.257158
     24          8           0       -2.525117    0.229458   -0.891833
     25          6           0       -4.385346   -1.297589   -1.252874
     26          6           0       -5.371964   -2.272152   -0.656727
     27          6           0       -4.380187   -0.982619   -2.550030
     28          6           0        1.796404    2.724693   -2.555428
     29          6           0        2.300998    3.573084   -0.234435
     30          1           0       -0.578598    2.990332   -1.399573
     31          1           0       -2.474723    2.218457    0.378192
     32          6           0       -2.882617    2.435400    3.008805
     33          1           0       -1.936358    0.062846    3.931980
     34          1           0       -0.927774   -1.758028    2.673183
     35          1           0        0.244209   -0.520256    2.303277
     36          1           0        3.611603   -0.593348   -1.332500
     37          1           0        4.184128    0.502558    0.776536
     38          1           0        5.592584    0.006241   -0.141394
     39          1           0        4.777508   -3.199998   -0.208331
     40          1           0        5.558609   -2.200872   -1.457223
     41          1           0        4.000562   -2.984023   -1.780363
     42          1           0        0.391266    2.186899    1.414713
     43          1           0       -0.572789    3.604303    1.003554
     44          1           0       -1.371888    0.196317   -2.339723
     45          1           0       -2.322843   -2.577542   -0.127753
     46          1           0       -2.950826   -2.010108    1.423396
     47          1           0       -4.014631   -0.125618    0.486862
     48          1           0       -5.951799   -1.806553    0.152354
     49          1           0       -4.866134   -3.143852   -0.221744
     50          1           0       -6.075189   -2.632077   -1.412952
     51          1           0       -5.087408   -1.436369   -3.239155
     52          1           0       -3.685129   -0.262254   -2.966996
     53          1           0        1.256353    1.976107   -3.139644
     54          1           0        1.462610    3.719662   -2.871458
     55          1           0        2.867564    2.640164   -2.765734
     56          1           0        2.203663    3.392453    0.839005
     57          1           0        1.921897    4.577091   -0.454264
     58          1           0        3.365197    3.548416   -0.489638
     59          1           0       -3.111158    2.141739    4.038165
     60          1           0       -2.359231    3.401003    3.043139
     61          1           0       -3.832281    2.615026    2.485745
     62          6           0        5.316406   -1.095452    1.697073
     63          1           0        5.887809   -0.393181    2.315753
     64          1           0        4.517221   -1.522325    2.309632
     65          1           0        5.990306   -1.913302    1.419885
 ---------------------------------------------------------------------

 The electronic state is 1-A.
 Alpha  occ. eigenvalues --  -19.20136 -19.17195 -19.15248 -19.13015 -19.11969
 Alpha  occ. eigenvalues --  -10.27118 -10.27065 -10.26883 -10.26315 -10.26188
 Alpha  occ. eigenvalues --  -10.26041 -10.24911 -10.21300 -10.20790 -10.20649
 Alpha  occ. eigenvalues --  -10.20514 -10.20074 -10.20025 -10.19661 -10.19535
 Alpha  occ. eigenvalues --  -10.19217 -10.18997 -10.18915 -10.18809 -10.18581
 Alpha  occ. eigenvalues --  -10.18570 -10.18081 -10.17700 -10.17548 -10.16252
 Alpha  occ. eigenvalues --  -10.15868  -1.09430  -1.06769  -1.03316  -1.02490
 Alpha  occ. eigenvalues --   -1.01690  -0.87104  -0.83981  -0.82201  -0.81372
 Alpha  occ. eigenvalues --   -0.80164  -0.79148  -0.76906  -0.73975  -0.73225
 Alpha  occ. eigenvalues --   -0.72282  -0.71226  -0.70453  -0.69010  -0.68469
 Alpha  occ. eigenvalues --   -0.65194  -0.64239  -0.63625  -0.61799  -0.60919
 Alpha  occ. eigenvalues --   -0.59126  -0.58526  -0.56825  -0.55091  -0.53248
 Alpha  occ. eigenvalues --   -0.53198  -0.51827  -0.51061  -0.49748  -0.49405
 Alpha  occ. eigenvalues --   -0.48163  -0.47329  -0.46969  -0.46607  -0.46162
 Alpha  occ. eigenvalues --   -0.45063  -0.44446  -0.44219  -0.44147  -0.43248
 Alpha  occ. eigenvalues --   -0.42795  -0.42389  -0.42346  -0.41779  -0.41642
 Alpha  occ. eigenvalues --   -0.41166  -0.40750  -0.40456  -0.40090  -0.39689
 Alpha  occ. eigenvalues --   -0.39264  -0.39029  -0.38704  -0.38407  -0.38063
 Alpha  occ. eigenvalues --   -0.37770  -0.37375  -0.36994  -0.36504  -0.36150
 Alpha  occ. eigenvalues --   -0.35837  -0.35770  -0.35212  -0.34762  -0.34594
 Alpha  occ. eigenvalues --   -0.33744  -0.33672  -0.33239  -0.33059  -0.32344
 Alpha  occ. eigenvalues --   -0.31311  -0.31272  -0.30815  -0.28349  -0.27491
 Alpha  occ. eigenvalues --   -0.25082  -0.24601  -0.24350  -0.23486  -0.22243
 Alpha virt. eigenvalues --   -0.04488  -0.01599   0.00981   0.01956   0.05177
 Alpha virt. eigenvalues --    0.07125   0.07800   0.08423   0.09125   0.10081
 Alpha virt. eigenvalues --    0.10516   0.10596   0.10849   0.11307   0.12150

 Mulliken atomic charges:
              1
     1  C   -0.194682
     2  C    0.197817
     3  C   -0.198210
     4  C    0.306759
     5  C   -0.027657
     6  C   -0.327051
     7  C    0.201354
     8  C    0.389392
     9  C   -0.088361
    10  C    0.397133
    11  C    0.431682
    12  O   -0.472112
    13  C   -0.146879
    14  C   -0.264435
    15  C   -0.452987
    16  O   -0.452827
    17  C   -0.155357
    18  C    0.297828
    19  O   -0.533404
    20  C   -0.308861
    21  O   -0.672991
    22  C   -0.331957
    23  C    0.117551
    24  O   -0.588166
    25  C    0.183688
    26  C   -0.518624
    27  C   -0.394320
    28  C   -0.467617
    29  C   -0.462912
    30  H    0.149827
    31  H    0.150277
    32  C   -0.521364
    33  H    0.125723
    34  H    0.166917
    35  H    0.167942
    36  H    0.136886
    37  H    0.139213
    38  H    0.130007
    39  H    0.173267
    40  H    0.134705
    41  H    0.150362
    42  H    0.160120
    43  H    0.151924
    44  H    0.430905
    45  H    0.191771
    46  H    0.148272
    47  H    0.134894
    48  H    0.153673
    49  H    0.170016
    50  H    0.160625
    51  H    0.136505
    52  H    0.145235
    53  H    0.197200
    54  H    0.146219
    55  H    0.156740
    56  H    0.161401
    57  H    0.153077
    58  H    0.164847
    59  H    0.158556
    60  H    0.155327
    61  H    0.155736
    62  C   -0.446717
    63  H    0.131307
    64  H    0.169655
    65  H    0.145162
 Sum of Mulliken atomic charges =   0.00000

 Dipole moment (field-independent basis, Debye):
    X=             -2.7561    Y=              6.3027    Z=              0.6812  Tot=              6.9126
 Quadrupole moment (field-independent basis, Debye-Ang):
   XX=           -176.1441   YY=           -188.3871   ZZ=           -183.5627
   XY=             11.3856   XZ=             -7.5772   YZ=              1.8559

 Normal termination of Gaussian 09 at Wed Mar 24 16:26:22 2021.
