 Gaussian 09, Revision B.01,
 Gaussian 09:  EM64L-G09RevB.01 12-Aug-2010

 ---------------------------------------
 # opt rb3lyp/6-31g(d) geom=connectivity
 ---------------------------------------

 -------------------
 Title Card Required
 -------------------
 Symbolic Z-matrix:
 Charge =  0 Multiplicity = 1

 SCF Done:  E(RB3LYP) =  -1387.30354439     A.U. after   16 cycles
 SCF Done:  E(RB3LYP) =  -1387.31595677     A.U. after   13 cycles
 SCF Done:  E(RB3LYP) =  -1387.31824659     A.U. after   13 cycles
 SCF Done:  E(RB3LYP) =  -1387.31820022     A.U. after   13 cycles
 SCF Done:  E(RB3LYP) =  -1387.31968163     A.U. after   13 cycles
 SCF Done:  E(RB3LYP) =  -1387.31973851     A.U. after   12 cycles
 SCF Done:  E(RB3LYP) =  -1387.31996047     A.U. after   12 cycles
 SCF Done:  E(RB3LYP) =  -1387.32008278     A.U. after   12 cycles
 SCF Done:  E(RB3LYP) =  -1387.32012057     A.U. after   11 cycles
 SCF Done:  E(RB3LYP) =  -1387.32013324     A.U. after   12 cycles
 SCF Done:  E(RB3LYP) =  -1387.32013857     A.U. after   12 cycles
 SCF Done:  E(RB3LYP) =  -1387.32014744     A.U. after   12 cycles
 SCF Done:  E(RB3LYP) =  -1387.32014923     A.U. after   11 cycles
 SCF Done:  E(RB3LYP) =  -1387.32014840     A.U. after   10 cycles
 SCF Done:  E(RB3LYP) =  -1387.32014825     A.U. after    8 cycles
 SCF Done:  E(RB3LYP) =  -1387.32014832     A.U. after    7 cycles
 Optimization completed.
    -- Stationary point found.

                         Standard orientation:
 ---------------------------------------------------------------------
 Center     Atomic      Atomic             Coordinates (Angstroms)
 Number     Number       Type             X           Y           Z
 ---------------------------------------------------------------------
      1          6           0       -1.508204    0.111712    3.220996
      2          6           0       -1.808128    1.265868    2.614324
      3          6           0       -2.005071    1.339503    1.114961
      4          6           0       -1.559376    0.080848    0.306327
      5          6           0       -0.842498   -1.072606    1.056069
      6          6           0       -1.347844   -1.204590    2.512413
      7          6           0       -0.722008    0.654553   -0.867945
      8          6           0        0.752891    0.788946   -0.545204
      9          6           0        1.448876   -0.059180    0.258149
     10          6           0        0.710896   -1.025098    1.077295
     11          6           0        2.940552    0.081127    0.440900
     12          8           0        3.443952    1.180901    0.597492
     13          6           0        3.814665   -1.173058    0.342417
     14          6           0        4.664941   -1.045974   -0.946421
     15          6           0        4.664220   -1.311356    1.616042
     16          8           0        1.296421   -1.802031    1.828848
     17          6           0       -1.072873    2.148969   -1.024531
     18          6           0        0.191451    2.725389   -1.706681
     19          8           0        1.268899    1.849864   -1.165958
     20          6           0       -1.313266    2.561281    0.441660
     21          8           0       -0.833464   -0.131816   -2.040017
     22          6           0       -1.278575   -2.306781    0.220875
     23          6           0       -2.721625   -1.971993   -0.146653
     24          8           0       -2.738717   -0.521100   -0.286662
     25          6           0       -3.323869   -2.580713   -1.396656
     26          6           0       -4.728893   -2.122735   -1.708025
     27          6           0       -2.684146   -3.481984   -2.148464
     28          6           0        0.176406    2.563355   -3.227993
     29          6           0        0.576262    4.149318   -1.314404
     30          1           0       -1.966732    2.294124   -1.639186
     31          1           0       -3.083565    1.425336    0.918243
     32          6           0       -2.033255    2.539144    3.391971
     33          1           0       -1.409287    0.096511    4.305660
     34          1           0       -2.311467   -1.735341    2.523850
     35          1           0       -0.640530   -1.847381    3.044059
     36          1           0        3.167355   -2.050598    0.253327
     37          1           0        3.996231   -0.828083   -1.791215
     38          1           0        5.322634   -0.174179   -0.844507
     39          1           0        5.324203   -2.182886    1.558073
     40          1           0        4.016392   -1.438502    2.488752
     41          1           0        5.277677   -0.416240    1.763321
     42          1           0       -0.355931    2.754211    0.938650
     43          1           0       -1.910557    3.473198    0.530716
     44          1           0       -1.759781   -0.444894   -2.033162
     45          1           0       -0.662333   -2.383880   -0.679256
     46          1           0       -1.185468   -3.235062    0.790884
     47          1           0       -3.388033   -2.217383    0.695086
     48          1           0       -4.769682   -1.034074   -1.828139
     49          1           0       -5.109588   -2.590240   -2.620783
     50          1           0       -5.412473   -2.372282   -0.884802
     51          1           0       -3.158699   -3.917769   -3.024125
     52          1           0       -1.680977   -3.830201   -1.924753
     53          1           0        1.163086    2.805449   -3.636021
     54          1           0       -0.553966    3.251613   -3.668863
     55          1           0       -0.087320    1.542451   -3.509752
     56          1           0        0.705333    4.255240   -0.235073
     57          1           0        1.518604    4.427478   -1.796207
     58          1           0       -0.198573    4.849532   -1.646199
     59          1           0       -1.939949    2.365160    4.468297
     60          1           0       -1.316870    3.323826    3.116674
     61          1           0       -3.035826    2.948297    3.201215
     62          6           0        5.484725   -2.296895   -1.279468
     63          1           0        6.018995   -2.167178   -2.227870
     64          1           0        6.232198   -2.515503   -0.509394
     65          1           0        4.840633   -3.179582   -1.378837
 ---------------------------------------------------------------------

 The electronic state is 1-A.
 Alpha  occ. eigenvalues --  -19.19583 -19.16708 -19.15862 -19.12629 -19.12128
 Alpha  occ. eigenvalues --  -10.27413 -10.27126 -10.26613 -10.26001 -10.25787
 Alpha  occ. eigenvalues --  -10.25768 -10.25249 -10.21333 -10.20888 -10.20584
 Alpha  occ. eigenvalues --  -10.20367 -10.19868 -10.19672 -10.19358 -10.19099
 Alpha  occ. eigenvalues --  -10.18995 -10.18974 -10.18785 -10.18679 -10.18484
 Alpha  occ. eigenvalues --  -10.18129 -10.18110 -10.17425 -10.17110 -10.16485
 Alpha  occ. eigenvalues --  -10.15605  -1.09294  -1.05910  -1.02880  -1.02472
 Alpha  occ. eigenvalues --   -1.01966  -0.86695  -0.83571  -0.82405  -0.81347
 Alpha  occ. eigenvalues --   -0.80248  -0.78950  -0.76640  -0.74310  -0.73138
 Alpha  occ. eigenvalues --   -0.71709  -0.71059  -0.69881  -0.69559  -0.67828
 Alpha  occ. eigenvalues --   -0.65278  -0.64075  -0.63378  -0.61740  -0.60578
 Alpha  occ. eigenvalues --   -0.59418  -0.58078  -0.56913  -0.54512  -0.53515
 Alpha  occ. eigenvalues --   -0.52626  -0.52021  -0.50679  -0.50339  -0.49238
 Alpha  occ. eigenvalues --   -0.48193  -0.47469  -0.46598  -0.46044  -0.45787
 Alpha  occ. eigenvalues --   -0.45230  -0.44388  -0.44189  -0.43345  -0.43260
 Alpha  occ. eigenvalues --   -0.43003  -0.42008  -0.41862  -0.41446  -0.41289
 Alpha  occ. eigenvalues --   -0.40822  -0.40780  -0.40334  -0.40029  -0.39335
 Alpha  occ. eigenvalues --   -0.39023  -0.38692  -0.38301  -0.38031  -0.37722
 Alpha  occ. eigenvalues --   -0.37490  -0.37363  -0.37051  -0.36800  -0.36768
 Alpha  occ. eigenvalues --   -0.36395  -0.34981  -0.34915  -0.34409  -0.34122
 Alpha  occ. eigenvalues --   -0.33784  -0.33584  -0.33399  -0.32754  -0.31966
 Alpha  occ. eigenvalues --   -0.31243  -0.30963  -0.30496  -0.28143  -0.26749
 Alpha  occ. eigenvalues --   -0.26319  -0.24621  -0.23970  -0.23429  -0.22369
 Alpha virt. eigenvalues --   -0.04783  -0.00959   0.00230   0.02226   0.06015
 Alpha virt. eigenvalues --    0.07218   0.08828   0.08871   0.09491   0.10453
 Alpha virt. eigenvalues --    0.10795   0.10854   0.11258   0.12093   0.12398

 Mulliken atomic charges:
              1
     1  C   -0.187206
     2  C    0.193172
     3  C   -0.188273
     4  C    0.324909
     5  C   -0.055235
     6  C   -0.333494
     7  C    0.198248
     8  C    0.402838
     9  C   -0.100013
    10  C    0.423041
    11  C    0.421558
    12  O   -0.465044
    13  C   -0.129813
    14  C   -0.254459
    15  C   -0.460042
    16  O   -0.513648
    17  C   -0.163837
    18  C    0.301462
    19  O   -0.506912
    20  C   -0.324058
    21  O   -0.657549
    22  C   -0.326031
    23  C    0.097269
    24  O   -0.591569
    25  C    0.180149
    26  C   -0.508027
    27  C   -0.392222
    28  C   -0.469203
    29  C   -0.456829
    30  H    0.143129
    31  H    0.164002
    32  C   -0.520052
    33  H    0.122555
    34  H    0.145270
    35  H    0.185564
    36  H    0.138642
    37  H    0.132181
    38  H    0.151256
    39  H    0.139236
    40  H    0.164863
    41  H    0.156946
    42  H    0.171450
    43  H    0.151399
    44  H    0.414396
    45  H    0.169869
    46  H    0.167352
    47  H    0.139180
    48  H    0.170962
    49  H    0.154663
    50  H    0.156797
    51  H    0.142732
    52  H    0.152611
    53  H    0.159517
    54  H    0.143063
    55  H    0.191414
    56  H    0.167082
    57  H    0.167691
    58  H    0.147926
    59  H    0.158121
    60  H    0.159124
    61  H    0.149868
    62  C   -0.448121
    63  H    0.141529
    64  H    0.148108
    65  H    0.140494
 Sum of Mulliken atomic charges =   0.00000

 Dipole moment (field-independent basis, Debye):
    X=             -5.4404    Y=              0.9551    Z=             -1.8055  Tot=              5.8112
 Quadrupole moment (field-independent basis, Debye-Ang):
   XX=           -187.8423   YY=           -174.6285   ZZ=           -182.7891
   XY=             -3.1567   XZ=             -3.5287   YZ=              0.2785

 Normal termination of Gaussian 09 at Wed Mar 24 17:06:12 2021.
