 Gaussian 09, Revision B.01,
 Gaussian 09:  EM64L-G09RevB.01 12-Aug-2010

 ---------------------------------------
 # opt rb3lyp/6-31g(d) geom=connectivity
 ---------------------------------------

 -------------------
 Title Card Required
 -------------------
 Symbolic Z-matrix:
 Charge =  0 Multiplicity = 1

 SCF Done:  E(RB3LYP) =  -1387.30221924     A.U. after   16 cycles
 SCF Done:  E(RB3LYP) =  -1387.31467218     A.U. after   13 cycles
 SCF Done:  E(RB3LYP) =  -1387.31716758     A.U. after   13 cycles
 SCF Done:  E(RB3LYP) =  -1387.31668456     A.U. after   13 cycles
 SCF Done:  E(RB3LYP) =  -1387.31774519     A.U. after   13 cycles
 SCF Done:  E(RB3LYP) =  -1387.31801505     A.U. after   12 cycles
 SCF Done:  E(RB3LYP) =  -1387.31808640     A.U. after   11 cycles
 SCF Done:  E(RB3LYP) =  -1387.31815489     A.U. after   11 cycles
 SCF Done:  E(RB3LYP) =  -1387.31817083     A.U. after   11 cycles
 SCF Done:  E(RB3LYP) =  -1387.31817392     A.U. after    9 cycles
 SCF Done:  E(RB3LYP) =  -1387.31817456     A.U. after    9 cycles
 SCF Done:  E(RB3LYP) =  -1387.31817448     A.U. after    8 cycles
 SCF Done:  E(RB3LYP) =  -1387.31817445     A.U. after    6 cycles
 Optimization completed.
    -- Stationary point found.

                         Standard orientation:
 ---------------------------------------------------------------------
 Center     Atomic      Atomic             Coordinates (Angstroms)
 Number     Number       Type             X           Y           Z
 ---------------------------------------------------------------------
      1          6           0       -0.749304   -2.408230    2.205179
      2          6           0       -0.656133   -1.210238    2.793757
      3          6           0       -1.097623    0.052202    2.084565
      4          6           0       -1.386421   -0.089825    0.556888
      5          6           0       -1.074928   -1.442269   -0.137407
      6          6           0       -1.293977   -2.635200    0.822314
      7          6           0       -0.644193    1.111202   -0.087518
      8          6           0        0.778872    0.788312   -0.484648
      9          6           0        1.217593   -0.416574   -0.918557
     10          6           0        0.333522   -1.588313   -0.786094
     11          6           0        2.594526   -0.618064   -1.503850
     12          8           0        2.716086   -1.135944   -2.597925
     13          6           0        3.830071   -0.188384   -0.700201
     14          6           0        4.707375   -1.428676   -0.418138
     15          6           0        4.610023    0.877936   -1.489254
     16          8           0        0.693160   -2.705442   -1.133351
     17          6           0       -0.360160    2.152707    1.016179
     18          6           0        0.859994    2.922721    0.454860
     19          8           0        1.558785    1.874238   -0.343009
     20          6           0       -0.108744    1.245845    2.237111
     21          8           0       -1.310359    1.603352   -1.234788
     22          6           0       -2.133632   -1.459986   -1.272202
     23          6           0       -3.354216   -0.831490   -0.604179
     24          8           0       -2.802062    0.135904    0.338603
     25          6           0       -4.384896   -0.126916   -1.463031
     26          6           0       -5.520265    0.505348   -0.693769
     27          6           0       -4.322044   -0.095115   -2.797833
     28          6           0        0.465013    4.047800   -0.503848
     29          6           0        1.871291    3.417140    1.485668
     30          1           0       -1.215758    2.816211    1.175357
     31          1           0       -2.058290    0.366386    2.517754
     32          6           0       -0.178152   -1.057350    4.216847
     33          1           0       -0.454227   -3.294803    2.765130
     34          1           0       -2.368048   -2.862010    0.895666
     35          1           0       -0.828345   -3.510921    0.361586
     36          1           0        3.504264    0.240770    0.254799
     37          1           0        4.986905   -1.872152   -1.381389
     38          1           0        5.636552   -1.085607    0.056938
     39          1           0        5.520113    1.164080   -0.949441
     40          1           0        4.005172    1.777677   -1.641400
     41          1           0        4.896252    0.485568   -2.470331
     42          1           0       -0.240207    1.770853    3.187612
     43          1           0        0.919503    0.867193    2.219125
     44          1           0       -2.260000    1.489997   -1.031110
     45          1           0       -2.319189   -2.473936   -1.636628
     46          1           0       -1.792676   -0.844416   -2.109171
     47          1           0       -3.883234   -1.588491   -0.004976
     48          1           0       -6.076990   -0.252931   -0.125886
     49          1           0       -5.144420    1.229647    0.038025
     50          1           0       -6.222131    1.014248   -1.360983
     51          1           0       -3.520217   -0.560994   -3.361277
     52          1           0       -5.094035    0.399502   -3.382102
     53          1           0       -0.248537    3.691383   -1.248637
     54          1           0        1.354743    4.431379   -1.013881
     55          1           0        0.009943    4.872965    0.056089
     56          1           0        1.407224    4.174414    2.127182
     57          1           0        2.727190    3.876736    0.981288
     58          1           0        2.242952    2.607715    2.118346
     59          1           0        0.047099   -2.030481    4.663841
     60          1           0        0.726551   -0.439404    4.286646
     61          1           0       -0.940173   -0.567655    4.840167
     62          6           0        4.035968   -2.487965    0.463434
     63          1           0        3.141828   -2.901340   -0.016131
     64          1           0        3.736294   -2.068373    1.432633
     65          1           0        4.721644   -3.319800    0.661288
 ---------------------------------------------------------------------

 The electronic state is 1-A.
 Alpha  occ. eigenvalues --  -19.19965 -19.16672 -19.15791 -19.12453 -19.12445
 Alpha  occ. eigenvalues --  -10.27294 -10.27042 -10.27027 -10.26247 -10.25868
 Alpha  occ. eigenvalues --  -10.25820 -10.25144 -10.21268 -10.20826 -10.20750
 Alpha  occ. eigenvalues --  -10.20527 -10.20199 -10.19492 -10.19487 -10.19445
 Alpha  occ. eigenvalues --  -10.19343 -10.18886 -10.18848 -10.18720 -10.18630
 Alpha  occ. eigenvalues --  -10.18385 -10.18242 -10.18216 -10.17196 -10.16612
 Alpha  occ. eigenvalues --  -10.16010  -1.09306  -1.05876  -1.03114  -1.02446
 Alpha  occ. eigenvalues --   -1.01973  -0.86817  -0.83812  -0.82411  -0.81467
 Alpha  occ. eigenvalues --   -0.80309  -0.79339  -0.76818  -0.74302  -0.73280
 Alpha  occ. eigenvalues --   -0.71963  -0.71433  -0.70271  -0.69468  -0.67927
 Alpha  occ. eigenvalues --   -0.65112  -0.64113  -0.63181  -0.61692  -0.60744
 Alpha  occ. eigenvalues --   -0.59443  -0.58891  -0.56953  -0.55095  -0.53496
 Alpha  occ. eigenvalues --   -0.52624  -0.52287  -0.50628  -0.50373  -0.49275
 Alpha  occ. eigenvalues --   -0.48432  -0.48040  -0.46760  -0.46381  -0.45898
 Alpha  occ. eigenvalues --   -0.45322  -0.44453  -0.43788  -0.43511  -0.43344
 Alpha  occ. eigenvalues --   -0.42215  -0.42090  -0.41903  -0.41517  -0.41455
 Alpha  occ. eigenvalues --   -0.40991  -0.40764  -0.40680  -0.40302  -0.40092
 Alpha  occ. eigenvalues --   -0.39410  -0.39171  -0.38533  -0.38200  -0.37879
 Alpha  occ. eigenvalues --   -0.37694  -0.37626  -0.37408  -0.37068  -0.36621
 Alpha  occ. eigenvalues --   -0.36466  -0.35348  -0.35102  -0.34490  -0.34381
 Alpha  occ. eigenvalues --   -0.33807  -0.33551  -0.33073  -0.32781  -0.32068
 Alpha  occ. eigenvalues --   -0.31620  -0.31105  -0.30823  -0.28114  -0.26745
 Alpha  occ. eigenvalues --   -0.26245  -0.24922  -0.24116  -0.23492  -0.22401
 Alpha virt. eigenvalues --   -0.04616  -0.01059   0.00340   0.02077   0.05480
 Alpha virt. eigenvalues --    0.06476   0.07538   0.08905   0.09001   0.10134
 Alpha virt. eigenvalues --    0.10533   0.10873   0.11481   0.11858   0.12618

 Mulliken atomic charges:
              1
     1  C   -0.187149
     2  C    0.190847
     3  C   -0.187705
     4  C    0.323257
     5  C   -0.058806
     6  C   -0.334057
     7  C    0.205331
     8  C    0.386902
     9  C   -0.089263
    10  C    0.435525
    11  C    0.423077
    12  O   -0.445286
    13  C   -0.134879
    14  C   -0.249286
    15  C   -0.457056
    16  O   -0.495489
    17  C   -0.164492
    18  C    0.305620
    19  O   -0.533672
    20  C   -0.320832
    21  O   -0.656289
    22  C   -0.326865
    23  C    0.096102
    24  O   -0.592153
    25  C    0.179645
    26  C   -0.508472
    27  C   -0.392028
    28  C   -0.468237
    29  C   -0.459888
    30  H    0.144714
    31  H    0.164865
    32  C   -0.519642
    33  H    0.122855
    34  H    0.145893
    35  H    0.187255
    36  H    0.120448
    37  H    0.157138
    38  H    0.125155
    39  H    0.136802
    40  H    0.152760
    41  H    0.165429
    42  H    0.151730
    43  H    0.160478
    44  H    0.414838
    45  H    0.169272
    46  H    0.175815
    47  H    0.138732
    48  H    0.156618
    49  H    0.170130
    50  H    0.154743
    51  H    0.156371
    52  H    0.142736
    53  H    0.195904
    54  H    0.157198
    55  H    0.143327
    56  H    0.152300
    57  H    0.164528
    58  H    0.160061
    59  H    0.158509
    60  H    0.154824
    61  H    0.150913
    62  C   -0.469535
    63  H    0.182184
    64  H    0.129487
    65  H    0.140763
 Sum of Mulliken atomic charges =   0.00000

 Dipole moment (field-independent basis, Debye):
    X=             -3.3944    Y=              3.9270    Z=              4.9108  Tot=              7.1455
 Quadrupole moment (field-independent basis, Debye-Ang):
   XX=           -177.2214   YY=           -182.8528   ZZ=           -188.9956
   XY=              7.5773   XZ=             11.0791   YZ=             -2.6025

 Normal termination of Gaussian 09 at Wed Mar 24 16:00:54 2021.
