 Gaussian 09, Revision B.01,
 Gaussian 09:  EM64L-G09RevB.01 12-Aug-2010

 ---------------------------------------
 # opt rb3lyp/6-31g(d) geom=connectivity
 ---------------------------------------

 -------------------
 Title Card Required
 -------------------
 Symbolic Z-matrix:
 Charge =  0 Multiplicity = 1

 SCF Done:  E(RB3LYP) =  -1387.30147637     A.U. after   16 cycles
 SCF Done:  E(RB3LYP) =  -1387.31381618     A.U. after   13 cycles
 SCF Done:  E(RB3LYP) =  -1387.31603848     A.U. after   13 cycles
 SCF Done:  E(RB3LYP) =  -1387.31594488     A.U. after   13 cycles
 SCF Done:  E(RB3LYP) =  -1387.31672327     A.U. after   13 cycles
 SCF Done:  E(RB3LYP) =  -1387.31690115     A.U. after   13 cycles
 SCF Done:  E(RB3LYP) =  -1387.31700292     A.U. after   13 cycles
 SCF Done:  E(RB3LYP) =  -1387.31713244     A.U. after   13 cycles
 SCF Done:  E(RB3LYP) =  -1387.31720957     A.U. after   12 cycles
 SCF Done:  E(RB3LYP) =  -1387.31724470     A.U. after   12 cycles
 SCF Done:  E(RB3LYP) =  -1387.31725601     A.U. after   13 cycles
 SCF Done:  E(RB3LYP) =  -1387.31729595     A.U. after   12 cycles
 SCF Done:  E(RB3LYP) =  -1387.31730465     A.U. after   12 cycles
 SCF Done:  E(RB3LYP) =  -1387.31733593     A.U. after   11 cycles
 SCF Done:  E(RB3LYP) =  -1387.31731525     A.U. after   13 cycles
 SCF Done:  E(RB3LYP) =  -1387.31735524     A.U. after   11 cycles
 SCF Done:  E(RB3LYP) =  -1387.31737677     A.U. after   12 cycles
 SCF Done:  E(RB3LYP) =  -1387.31738599     A.U. after   10 cycles
 SCF Done:  E(RB3LYP) =  -1387.31738753     A.U. after    8 cycles
 SCF Done:  E(RB3LYP) =  -1387.31738729     A.U. after    7 cycles
 Optimization completed.
    -- Stationary point found.

                         Standard orientation:
 ---------------------------------------------------------------------
 Center     Atomic      Atomic             Coordinates (Angstroms)
 Number     Number       Type             X           Y           Z
 ---------------------------------------------------------------------
      1          6           0       -1.327252   -0.395566    3.228791
      2          6           0       -1.145048    0.900371    2.950475
      3          6           0       -1.378054    1.445703    1.556153
      4          6           0       -1.515945    0.381449    0.423175
      5          6           0       -1.341062   -1.117905    0.775154
      6          6           0       -1.782839   -1.421067    2.228537
      7          6           0       -0.532509    0.855174   -0.680006
      8          6           0        0.870998    0.317548   -0.490501
      9          6           0        1.178206   -0.893814    0.032310
     10          6           0        0.077187   -1.722565    0.569803
     11          6           0        2.591298   -1.397739    0.181471
     12          8           0        2.938249   -1.938483    1.217572
     13          6           0        3.553847   -1.260251   -1.004977
     14          6           0        4.763848   -0.347329   -0.670261
     15          6           0        3.975451   -2.669735   -1.461316
     16          8           0        0.236057   -2.899760    0.853984
     17          6           0       -0.255032    2.358239   -0.457132
     18          6           0        1.131858    2.553167   -1.113491
     19          8           0        1.779713    1.234578   -0.864251
     20          6           0       -0.291611    2.455875    1.082137
     21          8           0       -0.959335    0.486393   -1.978007
     22          6           0       -2.308333   -1.796649   -0.228045
     23          6           0       -3.465335   -0.792328   -0.315924
     24          8           0       -2.849862    0.496810   -0.136518
     25          6           0       -4.277482   -0.843380   -1.592262
     26          6           0       -4.857857   -2.195441   -1.927559
     27          6           0       -4.502481    0.242071   -2.339839
     28          6           0        1.054362    2.760492   -2.628002
     29          6           0        2.038633    3.599336   -0.471020
     30          1           0       -1.018422    2.986697   -0.925830
     31          1           0       -2.342591    1.972810    1.555902
     32          6           0       -0.774498    1.898216    4.019940
     33          1           0       -1.182521   -0.741442    4.251291
     34          1           0       -2.880481   -1.495476    2.269629
     35          1           0       -1.403222   -2.414552    2.485026
     36          1           0        3.014795   -0.780212   -1.828663
     37          1           0        5.295480   -0.163793   -1.614807
     38          1           0        4.378279    0.627384   -0.345939
     39          1           0        4.700067   -2.603940   -2.281732
     40          1           0        3.111307   -3.241860   -1.817350
     41          1           0        4.427945   -3.228459   -0.637747
     42          1           0        0.678083    2.159011    1.495862
     43          1           0       -0.492670    3.471378    1.435059
     44          1           0       -1.932408    0.578180   -1.962114
     45          1           0       -1.830983   -1.906455   -1.206924
     46          1           0       -2.617908   -2.785504    0.119014
     47          1           0       -4.157627   -0.954901    0.526918
     48          1           0       -5.455564   -2.587329   -1.093130
     49          1           0       -5.503860   -2.140032   -2.808222
     50          1           0       -4.072559   -2.935763   -2.127068
     51          1           0       -5.099022    0.185725   -3.246385
     52          1           0       -4.122941    1.219026   -2.058686
     53          1           0        2.058075    2.709128   -3.062642
     54          1           0        0.638183    3.750463   -2.847855
     55          1           0        0.422059    2.003232   -3.094666
     56          1           0        2.194561    3.411701    0.593722
     57          1           0        3.016221    3.601542   -0.963592
     58          1           0        1.597436    4.595348   -0.588189
     59          1           0       -0.697084    1.415105    4.998715
     60          1           0        0.184285    2.391247    3.814246
     61          1           0       -1.527399    2.696081    4.095574
     62          6           0        5.755639   -0.879417    0.370288
     63          1           0        6.547859   -0.141825    0.546339
     64          1           0        5.261209   -1.091484    1.321522
     65          1           0        6.236916   -1.804059    0.033084
 ---------------------------------------------------------------------

 The electronic state is 1-A.
 Alpha  occ. eigenvalues --  -19.19998 -19.16672 -19.15883 -19.12335 -19.12239
 Alpha  occ. eigenvalues --  -10.27278 -10.27003 -10.26872 -10.26133 -10.25913
 Alpha  occ. eigenvalues --  -10.25753 -10.25224 -10.21166 -10.20865 -10.20784
 Alpha  occ. eigenvalues --  -10.20340 -10.19996 -10.19571 -10.19371 -10.19336
 Alpha  occ. eigenvalues --  -10.19325 -10.19230 -10.18797 -10.18481 -10.18449
 Alpha  occ. eigenvalues --  -10.18396 -10.18131 -10.18060 -10.17339 -10.16537
 Alpha  occ. eigenvalues --  -10.15565  -1.09345  -1.06067  -1.03021  -1.02646
 Alpha  occ. eigenvalues --   -1.01770  -0.86744  -0.83797  -0.82475  -0.81374
 Alpha  occ. eigenvalues --   -0.80233  -0.79105  -0.76767  -0.74261  -0.73214
 Alpha  occ. eigenvalues --   -0.71866  -0.71133  -0.70209  -0.69547  -0.67996
 Alpha  occ. eigenvalues --   -0.65086  -0.64556  -0.63073  -0.61752  -0.60667
 Alpha  occ. eigenvalues --   -0.59374  -0.58519  -0.56787  -0.54950  -0.53781
 Alpha  occ. eigenvalues --   -0.52675  -0.52221  -0.50470  -0.50241  -0.49246
 Alpha  occ. eigenvalues --   -0.47879  -0.47505  -0.46871  -0.46409  -0.45899
 Alpha  occ. eigenvalues --   -0.44985  -0.44499  -0.44311  -0.43782  -0.43266
 Alpha  occ. eigenvalues --   -0.42744  -0.42313  -0.42062  -0.41765  -0.41366
 Alpha  occ. eigenvalues --   -0.41039  -0.40798  -0.40607  -0.40233  -0.39330
 Alpha  occ. eigenvalues --   -0.39132  -0.38705  -0.38464  -0.37964  -0.37586
 Alpha  occ. eigenvalues --   -0.37459  -0.37344  -0.37195  -0.36963  -0.36484
 Alpha  occ. eigenvalues --   -0.36314  -0.35864  -0.35212  -0.34642  -0.34411
 Alpha  occ. eigenvalues --   -0.34022  -0.33663  -0.33087  -0.32833  -0.31903
 Alpha  occ. eigenvalues --   -0.31288  -0.31103  -0.30805  -0.28332  -0.26611
 Alpha  occ. eigenvalues --   -0.25893  -0.24546  -0.24172  -0.23350  -0.22095
 Alpha virt. eigenvalues --   -0.04739  -0.01450   0.00974   0.02249   0.05887
 Alpha virt. eigenvalues --    0.07427   0.08297   0.08534   0.09311   0.09915
 Alpha virt. eigenvalues --    0.10450   0.10769   0.11093   0.11907   0.12767

 Mulliken atomic charges:
              1
     1  C   -0.185105
     2  C    0.192186
     3  C   -0.189408
     4  C    0.320994
     5  C   -0.051082
     6  C   -0.334599
     7  C    0.200521
     8  C    0.386537
     9  C   -0.089637
    10  C    0.428974
    11  C    0.423482
    12  O   -0.450835
    13  C   -0.142761
    14  C   -0.261481
    15  C   -0.453732
    16  O   -0.486436
    17  C   -0.163288
    18  C    0.305517
    19  O   -0.536043
    20  C   -0.323093
    21  O   -0.661438
    22  C   -0.322958
    23  C    0.104962
    24  O   -0.590759
    25  C    0.187456
    26  C   -0.519564
    27  C   -0.407718
    28  C   -0.469301
    29  C   -0.461424
    30  H    0.144449
    31  H    0.166461
    32  C   -0.519334
    33  H    0.124937
    34  H    0.145003
    35  H    0.186167
    36  H    0.133885
    37  H    0.127545
    38  H    0.139741
    39  H    0.138519
    40  H    0.150724
    41  H    0.172710
    42  H    0.165959
    43  H    0.151477
    44  H    0.416556
    45  H    0.170496
    46  H    0.167609
    47  H    0.144550
    48  H    0.158960
    49  H    0.161447
    50  H    0.170664
    51  H    0.139093
    52  H    0.151826
    53  H    0.156156
    54  H    0.144302
    55  H    0.194557
    56  H    0.162883
    57  H    0.164314
    58  H    0.152446
    59  H    0.159358
    60  H    0.156441
    61  H    0.150065
    62  C   -0.447853
    63  H    0.129910
    64  H    0.176378
    65  H    0.141629
 Sum of Mulliken atomic charges =   0.00000

 Dipole moment (field-independent basis, Debye):
    X=             -3.5381    Y=              4.9733    Z=             -1.6088  Tot=              6.3119
 Quadrupole moment (field-independent basis, Debye-Ang):
   XX=           -181.6976   YY=           -182.5990   ZZ=           -182.8668
   XY=             13.4361   XZ=             -4.9058   YZ=              5.8977

 Normal termination of Gaussian 09 at Wed Mar 24 15:57:04 2021.
