 Gaussian 09, Revision B.01,
 Gaussian 09:  EM64L-G09RevB.01 12-Aug-2010

 ---------------------------------------
 # opt rb3lyp/6-31g(d) geom=connectivity
 ---------------------------------------

 -------------------
 Title Card Required
 -------------------
 Symbolic Z-matrix:
 Charge =  0 Multiplicity = 1

 SCF Done:  E(RB3LYP) =  -1387.30207592     A.U. after   16 cycles
 SCF Done:  E(RB3LYP) =  -1387.31436148     A.U. after   13 cycles
 SCF Done:  E(RB3LYP) =  -1387.31679974     A.U. after   13 cycles
 SCF Done:  E(RB3LYP) =  -1387.31646375     A.U. after   14 cycles
 SCF Done:  E(RB3LYP) =  -1387.31717799     A.U. after   13 cycles
 SCF Done:  E(RB3LYP) =  -1387.31764739     A.U. after   13 cycles
 SCF Done:  E(RB3LYP) =  -1387.31791802     A.U. after   12 cycles
 SCF Done:  E(RB3LYP) =  -1387.31799177     A.U. after   12 cycles
 SCF Done:  E(RB3LYP) =  -1387.31800931     A.U. after   10 cycles
 SCF Done:  E(RB3LYP) =  -1387.31800966     A.U. after   10 cycles
 SCF Done:  E(RB3LYP) =  -1387.31801101     A.U. after    8 cycles
 SCF Done:  E(RB3LYP) =  -1387.31801080     A.U. after    7 cycles
 SCF Done:  E(RB3LYP) =  -1387.31801090     A.U. after    6 cycles
 Optimization completed.
    -- Stationary point found.

                         Standard orientation:
 ---------------------------------------------------------------------
 Center     Atomic      Atomic             Coordinates (Angstroms)
 Number     Number       Type             X           Y           Z
 ---------------------------------------------------------------------
      1          6           0       -0.408114   -2.169688    2.375286
      2          6           0       -0.411480   -0.919272    2.853199
      3          6           0       -1.020476    0.221857    2.064882
      4          6           0       -1.347232   -0.081773    0.567860
      5          6           0       -0.936059   -1.458664   -0.019311
      6          6           0       -0.998940   -2.572274    1.052637
      7          6           0       -0.741157    1.116935   -0.209695
      8          6           0        0.697395    0.889012   -0.614391
      9          6           0        1.234385   -0.307503   -0.940443
     10          6           0        0.454665   -1.530671   -0.711324
     11          6           0        2.628618   -0.446227   -1.525194
     12          8           0        2.761848   -0.822046   -2.672641
     13          6           0        3.811662   -0.123037   -0.614332
     14          6           0        3.907561   -1.165693    0.535630
     15          6           0        5.109626    0.015318   -1.415641
     16          8           0        0.893157   -2.634898   -1.012920
     17          6           0       -0.534116    2.281655    0.782852
     18          6           0        0.599569    3.100931    0.117637
     19          8           0        1.383391    2.046569   -0.585808
     20          6           0       -0.168279    1.525807    2.075588
     21          8           0       -1.480230    1.429619   -1.374929
     22          6           0       -2.032253   -1.680450   -1.095228
     23          6           0       -3.278736   -1.102063   -0.430405
     24          8           0       -2.783795   -0.002480    0.390751
     25          6           0       -4.404201   -0.580418   -1.300485
     26          6           0       -5.557120    0.031558   -0.540875
     27          6           0       -4.402448   -0.685201   -2.633006
     28          6           0        0.085240    4.081347   -0.938865
     29          6           0        1.572947    3.792035    1.068857
     30          1           0       -1.443876    2.877791    0.903715
     31          1           0       -1.994228    0.461942    2.515421
     32          6           0        0.112753   -0.592618    4.230143
     33          1           0        0.003679   -2.968653    2.990622
     34          1           0       -2.043964   -2.879349    1.207501
     35          1           0       -0.481214   -3.445241    0.645314
     36          1           0        3.578105    0.840859   -0.140865
     37          1           0        4.684704   -0.816907    1.229258
     38          1           0        2.966489   -1.157290    1.101572
     39          1           0        5.952079    0.222545   -0.745390
     40          1           0        5.035658    0.834969   -2.137659
     41          1           0        5.328621   -0.893670   -1.981465
     42          1           0       -0.340391    2.122034    2.976330
     43          1           0        0.894958    1.261541    2.065464
     44          1           0       -2.410398    1.263335   -1.123965
     45          1           0       -2.136641   -2.737238   -1.354902
     46          1           0       -1.782950   -1.120521   -2.000592
     47          1           0       -3.711087   -1.842441    0.260865
     48          1           0       -6.008278   -0.701615    0.142013
     49          1           0       -5.218220    0.868780    0.080137
     50          1           0       -6.337285    0.391427   -1.218001
     51          1           0       -3.586442   -1.137057   -3.187490
     52          1           0       -5.240796   -0.323789   -3.223335
     53          1           0       -0.598682    3.585859   -1.629962
     54          1           0        0.927635    4.495010   -1.502641
     55          1           0       -0.442397    4.911051   -0.454173
     56          1           0        1.048619    4.565649    1.640802
     57          1           0        2.373956    4.274765    0.499959
     58          1           0        2.029699    3.091576    1.772265
     59          1           0        0.466927   -1.493486    4.740508
     60          1           0        0.943392    0.124005    4.199810
     61          1           0       -0.670552   -0.137598    4.853328
     62          6           0        4.215537   -2.600570    0.091507
     63          1           0        5.178669   -2.667519   -0.425862
     64          1           0        3.439253   -2.983038   -0.578504
     65          1           0        4.263926   -3.263853    0.962998
 ---------------------------------------------------------------------

 The electronic state is 1-A.
 Alpha  occ. eigenvalues --  -19.19706 -19.16641 -19.15720 -19.12750 -19.12550
 Alpha  occ. eigenvalues --  -10.27068 -10.27061 -10.26896 -10.26435 -10.25799
 Alpha  occ. eigenvalues --  -10.25773 -10.25132 -10.21288 -10.20754 -10.20725
 Alpha  occ. eigenvalues --  -10.20544 -10.20155 -10.19648 -10.19458 -10.19370
 Alpha  occ. eigenvalues --  -10.19204 -10.18871 -10.18818 -10.18799 -10.18758
 Alpha  occ. eigenvalues --  -10.18406 -10.18374 -10.18250 -10.17896 -10.16179
 Alpha  occ. eigenvalues --  -10.15736  -1.09068  -1.05829  -1.03181  -1.02403
 Alpha  occ. eigenvalues --   -1.02176  -0.86787  -0.83758  -0.82402  -0.81490
 Alpha  occ. eigenvalues --   -0.80302  -0.79583  -0.76723  -0.74307  -0.73258
 Alpha  occ. eigenvalues --   -0.71831  -0.71205  -0.70182  -0.69454  -0.67962
 Alpha  occ. eigenvalues --   -0.65436  -0.64556  -0.63305  -0.61648  -0.60668
 Alpha  occ. eigenvalues --   -0.59384  -0.58659  -0.56919  -0.55042  -0.53436
 Alpha  occ. eigenvalues --   -0.52623  -0.52264  -0.50461  -0.50340  -0.49218
 Alpha  occ. eigenvalues --   -0.48182  -0.47399  -0.46667  -0.46348  -0.45885
 Alpha  occ. eigenvalues --   -0.45301  -0.44791  -0.44457  -0.44101  -0.43459
 Alpha  occ. eigenvalues --   -0.43211  -0.42455  -0.41949  -0.41543  -0.41478
 Alpha  occ. eigenvalues --   -0.40951  -0.40768  -0.40451  -0.40228  -0.39271
 Alpha  occ. eigenvalues --   -0.39146  -0.38473  -0.38205  -0.38055  -0.37706
 Alpha  occ. eigenvalues --   -0.37581  -0.37397  -0.37186  -0.36926  -0.36714
 Alpha  occ. eigenvalues --   -0.36538  -0.35871  -0.35116  -0.34877  -0.34528
 Alpha  occ. eigenvalues --   -0.33838  -0.33552  -0.33239  -0.32833  -0.32038
 Alpha  occ. eigenvalues --   -0.31477  -0.31231  -0.30956  -0.28064  -0.26670
 Alpha  occ. eigenvalues --   -0.26222  -0.24908  -0.24181  -0.23477  -0.22611
 Alpha virt. eigenvalues --   -0.04482  -0.00678   0.00370   0.01941   0.04967
 Alpha virt. eigenvalues --    0.06470   0.07655   0.08859   0.08928   0.10048
 Alpha virt. eigenvalues --    0.10353   0.10885   0.11179   0.11796   0.12622

 Mulliken atomic charges:
              1
     1  C   -0.188803
     2  C    0.189537
     3  C   -0.187276
     4  C    0.322883
     5  C   -0.058548
     6  C   -0.333156
     7  C    0.205431
     8  C    0.390072
     9  C   -0.095460
    10  C    0.436969
    11  C    0.429542
    12  O   -0.435112
    13  C   -0.167591
    14  C   -0.267138
    15  C   -0.445415
    16  O   -0.501393
    17  C   -0.163505
    18  C    0.304287
    19  O   -0.535261
    20  C   -0.321829
    21  O   -0.655025
    22  C   -0.326356
    23  C    0.096367
    24  O   -0.592123
    25  C    0.179889
    26  C   -0.507958
    27  C   -0.392309
    28  C   -0.467392
    29  C   -0.460340
    30  H    0.144107
    31  H    0.165415
    32  C   -0.519452
    33  H    0.123205
    34  H    0.146725
    35  H    0.185875
    36  H    0.147153
    37  H    0.132760
    38  H    0.136834
    39  H    0.131437
    40  H    0.149906
    41  H    0.168616
    42  H    0.151326
    43  H    0.161426
    44  H    0.413959
    45  H    0.168645
    46  H    0.176539
    47  H    0.138096
    48  H    0.156120
    49  H    0.169922
    50  H    0.154689
    51  H    0.156238
    52  H    0.142616
    53  H    0.195818
    54  H    0.157587
    55  H    0.142366
    56  H    0.152104
    57  H    0.164137
    58  H    0.158922
    59  H    0.158426
    60  H    0.155497
    61  H    0.151629
    62  C   -0.460145
    63  H    0.143735
    64  H    0.189314
    65  H    0.135466
 Sum of Mulliken atomic charges =   0.00000

 Dipole moment (field-independent basis, Debye):
    X=             -3.5828    Y=              3.5932    Z=              5.0220  Tot=              7.1392
 Quadrupole moment (field-independent basis, Debye-Ang):
   XX=           -178.4223   YY=           -180.3362   ZZ=           -190.5144
   XY=              7.4078   XZ=             11.3299   YZ=             -1.8221

 Normal termination of Gaussian 09 at Wed Mar 24 18:08:02 2021.
