 Gaussian 09, Revision B.01,
 Gaussian 09:  EM64L-G09RevB.01 12-Aug-2010

 ---------------------------------------
 # opt rb3lyp/6-31g(d) geom=connectivity
 ---------------------------------------

 -------------------
 Title Card Required
 -------------------
 Symbolic Z-matrix:
 Charge =  0 Multiplicity = 1

 SCF Done:  E(RB3LYP) =  -1387.29963196     A.U. after   16 cycles
 SCF Done:  E(RB3LYP) =  -1387.31216380     A.U. after   13 cycles
 SCF Done:  E(RB3LYP) =  -1387.31419531     A.U. after   13 cycles
 SCF Done:  E(RB3LYP) =  -1387.30803165     A.U. after   14 cycles
 SCF Done:  E(RB3LYP) =  -1387.31474798     A.U. after   13 cycles
 SCF Done:  E(RB3LYP) =  -1387.31524542     A.U. after   12 cycles
 SCF Done:  E(RB3LYP) =  -1387.31528873     A.U. after   13 cycles
 SCF Done:  E(RB3LYP) =  -1387.31545179     A.U. after   12 cycles
 SCF Done:  E(RB3LYP) =  -1387.31557863     A.U. after   12 cycles
 SCF Done:  E(RB3LYP) =  -1387.31561799     A.U. after   11 cycles
 SCF Done:  E(RB3LYP) =  -1387.31562827     A.U. after   10 cycles
 SCF Done:  E(RB3LYP) =  -1387.31563676     A.U. after   10 cycles
 SCF Done:  E(RB3LYP) =  -1387.31563805     A.U. after    8 cycles
 SCF Done:  E(RB3LYP) =  -1387.31563850     A.U. after    7 cycles
 SCF Done:  E(RB3LYP) =  -1387.31563865     A.U. after    7 cycles
 SCF Done:  E(RB3LYP) =  -1387.31563884     A.U. after    7 cycles
 SCF Done:  E(RB3LYP) =  -1387.31563892     A.U. after    6 cycles
 SCF Done:  E(RB3LYP) =  -1387.31563898     A.U. after    6 cycles
 Optimization completed.
    -- Stationary point found.

                         Standard orientation:
 ---------------------------------------------------------------------
 Center     Atomic      Atomic             Coordinates (Angstroms)
 Number     Number       Type             X           Y           Z
 ---------------------------------------------------------------------
      1          6           0       -1.982250    0.870817    2.732906
      2          6           0       -2.334470    1.795867    1.832047
      3          6           0       -1.743433    1.767687    0.441619
      4          6           0       -1.290248    0.368834   -0.090743
      5          6           0       -1.104290   -0.767815    0.974853
      6          6           0       -1.004250   -0.233374    2.435813
      7          6           0       -0.020605    0.670356   -0.953341
      8          6           0        1.277051    0.332229   -0.237435
      9          6           0        1.439819   -0.770700    0.523217
     10          6           0        0.209631   -1.569344    0.769632
     11          6           0        2.679095   -1.190253    1.273199
     12          8           0        2.572960   -1.403768    2.470733
     13          6           0        4.037425   -1.362775    0.581302
     14          6           0        3.955228   -1.785445   -0.895581
     15          6           0        4.900880   -0.100881    0.796326
     16          8           0        0.235719   -2.779093    0.922699
     17          6           0        0.122473    2.205120   -1.068067
     18          6           0        1.644220    2.409276   -1.239024
     19          8           0        2.215127    1.264866   -0.481832
     20          6           0       -0.512234    2.691440    0.249233
     21          8           0       -0.035229   -0.026069   -2.182974
     22          6           0       -2.340293   -1.681029    0.767127
     23          6           0       -3.210457   -0.959997   -0.264368
     24          8           0       -2.276056   -0.135391   -1.003537
     25          6           0       -4.019965   -1.774943   -1.248805
     26          6           0       -4.672045   -0.980800   -2.354973
     27          6           0       -4.202375   -3.091366   -1.113846
     28          6           0        2.089460    2.267181   -2.696751
     29          6           0        2.224433    3.669869   -0.604940
     30          1           0       -0.428589    2.584368   -1.933862
     31          1           0       -2.507250    2.099116   -0.275545
     32          6           0       -3.289264    2.919449    2.143526
     33          1           0       -2.390794    0.918751    3.741395
     34          1           0        0.021555    0.107327    2.636288
     35          1           0       -1.158882   -1.080621    3.112554
     36          1           0        4.510122   -2.174345    1.150989
     37          1           0        3.381029   -1.043788   -1.463723
     38          1           0        4.972202   -1.764579   -1.310872
     39          1           0        4.960010    0.146239    1.861493
     40          1           0        5.918306   -0.281145    0.430556
     41          1           0        4.490381    0.760150    0.262412
     42          1           0        0.179861    2.555091    1.088966
     43          1           0       -0.787564    3.750293    0.225979
     44          1           0       -0.944420   -0.380816   -2.260562
     45          1           0       -2.885618   -1.851938    1.698873
     46          1           0       -1.996237   -2.650476    0.399989
     47          1           0       -3.901506   -0.273917    0.253164
     48          1           0       -5.309936   -0.185627   -1.944893
     49          1           0       -3.922004   -0.485617   -2.982131
     50          1           0       -5.289604   -1.620072   -2.992613
     51          1           0       -3.749647   -3.668969   -0.314628
     52          1           0       -4.830443   -3.642598   -1.809090
     53          1           0        3.182152    2.223980   -2.751669
     54          1           0        1.750944    3.132292   -3.278451
     55          1           0        1.672520    1.362693   -3.145595
     56          1           0        3.312739    3.683998   -0.722744
     57          1           0        1.817936    4.558580   -1.100135
     58          1           0        1.996263    3.731404    0.462059
     59          1           0       -3.651092    2.865336    3.175126
     60          1           0       -2.814923    3.900996    2.005200
     61          1           0       -4.160893    2.898321    1.474367
     62          6           0        3.354838   -3.182713   -1.095291
     63          1           0        2.346559   -3.257590   -0.673211
     64          1           0        3.293538   -3.435264   -2.159996
     65          1           0        3.972868   -3.946076   -0.606214
 ---------------------------------------------------------------------

 The electronic state is 1-A.
 Alpha  occ. eigenvalues --  -19.19690 -19.17028 -19.15042 -19.13273 -19.12699
 Alpha  occ. eigenvalues --  -10.27124 -10.26828 -10.26698 -10.26685 -10.26164
 Alpha  occ. eigenvalues --  -10.26000 -10.24848 -10.21308 -10.20605 -10.20509
 Alpha  occ. eigenvalues --  -10.20318 -10.20259 -10.19826 -10.19380 -10.19325
 Alpha  occ. eigenvalues --  -10.19084 -10.18969 -10.18734 -10.18552 -10.18435
 Alpha  occ. eigenvalues --  -10.18407 -10.18319 -10.18195 -10.17109 -10.16884
 Alpha  occ. eigenvalues --  -10.15756  -1.08996  -1.06417  -1.03535  -1.02327
 Alpha  occ. eigenvalues --   -1.02219  -0.86903  -0.83786  -0.82112  -0.81307
 Alpha  occ. eigenvalues --   -0.80095  -0.79475  -0.76715  -0.73979  -0.73007
 Alpha  occ. eigenvalues --   -0.72006  -0.71594  -0.70291  -0.69110  -0.68198
 Alpha  occ. eigenvalues --   -0.64852  -0.63937  -0.63472  -0.61581  -0.60706
 Alpha  occ. eigenvalues --   -0.59057  -0.59015  -0.56794  -0.55521  -0.53886
 Alpha  occ. eigenvalues --   -0.52869  -0.51814  -0.51057  -0.49900  -0.49442
 Alpha  occ. eigenvalues --   -0.47956  -0.47080  -0.46722  -0.46366  -0.45871
 Alpha  occ. eigenvalues --   -0.44945  -0.44493  -0.44244  -0.43520  -0.42969
 Alpha  occ. eigenvalues --   -0.42713  -0.42275  -0.41921  -0.41729  -0.41305
 Alpha  occ. eigenvalues --   -0.41011  -0.40561  -0.40497  -0.40169  -0.39702
 Alpha  occ. eigenvalues --   -0.39506  -0.39118  -0.38964  -0.38586  -0.38172
 Alpha  occ. eigenvalues --   -0.37974  -0.37634  -0.37338  -0.36999  -0.36279
 Alpha  occ. eigenvalues --   -0.35638  -0.35389  -0.35288  -0.34484  -0.34122
 Alpha  occ. eigenvalues --   -0.33652  -0.33133  -0.33000  -0.32780  -0.32326
 Alpha  occ. eigenvalues --   -0.31450  -0.31250  -0.31138  -0.28073  -0.27357
 Alpha  occ. eigenvalues --   -0.25781  -0.24582  -0.24305  -0.23389  -0.22769
 Alpha virt. eigenvalues --   -0.04019  -0.01825   0.01036   0.01256   0.04538
 Alpha virt. eigenvalues --    0.07015   0.07831   0.08769   0.09216   0.10041
 Alpha virt. eigenvalues --    0.10664   0.11291   0.11479   0.11874   0.12387

 Mulliken atomic charges:
              1
     1  C   -0.193723
     2  C    0.197493
     3  C   -0.196915
     4  C    0.312642
     5  C   -0.027286
     6  C   -0.330715
     7  C    0.198866
     8  C    0.412476
     9  C   -0.103460
    10  C    0.407276
    11  C    0.421047
    12  O   -0.453660
    13  C   -0.142935
    14  C   -0.268101
    15  C   -0.470139
    16  O   -0.474165
    17  C   -0.155935
    18  C    0.299259
    19  O   -0.542432
    20  C   -0.308777
    21  O   -0.670071
    22  C   -0.333019
    23  C    0.102987
    24  O   -0.585154
    25  C    0.188118
    26  C   -0.505841
    27  C   -0.393835
    28  C   -0.467667
    29  C   -0.462081
    30  H    0.147356
    31  H    0.146456
    32  C   -0.521009
    33  H    0.125720
    34  H    0.178436
    35  H    0.165945
    36  H    0.153094
    37  H    0.147890
    38  H    0.127436
    39  H    0.156994
    40  H    0.143524
    41  H    0.164398
    42  H    0.162449
    43  H    0.150869
    44  H    0.422250
    45  H    0.150397
    46  H    0.187229
    47  H    0.136445
    48  H    0.151077
    49  H    0.168199
    50  H    0.153895
    51  H    0.153241
    52  H    0.139116
    53  H    0.156179
    54  H    0.144729
    55  H    0.196155
    56  H    0.163314
    57  H    0.151704
    58  H    0.162127
    59  H    0.158685
    60  H    0.155105
    61  H    0.153779
    62  C   -0.461357
    63  H    0.175877
    64  H    0.138566
    65  H    0.139476
 Sum of Mulliken atomic charges =   0.00000

 Dipole moment (field-independent basis, Debye):
    X=             -2.9788    Y=              5.3849    Z=             -1.9890  Tot=              6.4673
 Quadrupole moment (field-independent basis, Debye-Ang):
   XX=           -175.4449   YY=           -182.3367   ZZ=           -189.4235
   XY=              5.3921   XZ=             -6.9997   YZ=              3.3807

 Normal termination of Gaussian 09 at Wed Mar 24 16:53:43 2021.
