 Gaussian 09, Revision B.01,
 Gaussian 09:  EM64L-G09RevB.01 12-Aug-2010

 ---------------------------------------
 # opt rb3lyp/6-31g(d) geom=connectivity
 ---------------------------------------

 -------------------
 Title Card Required
 -------------------
 Symbolic Z-matrix:
 Charge =  0 Multiplicity = 1

 SCF Done:  E(RB3LYP) =  -1387.29952852     A.U. after   16 cycles
 SCF Done:  E(RB3LYP) =  -1387.31223443     A.U. after   16 cycles
 SCF Done:  E(RB3LYP) =  -1387.31453678     A.U. after   13 cycles
 SCF Done:  E(RB3LYP) =  -1387.31385036     A.U. after   14 cycles
 SCF Done:  E(RB3LYP) =  -1387.31461076     A.U. after   13 cycles
 SCF Done:  E(RB3LYP) =  -1387.31126776     A.U. after   15 cycles
 SCF Done:  E(RB3LYP) =  -1387.31518414     A.U. after   13 cycles
 SCF Done:  E(RB3LYP) =  -1387.31522495     A.U. after   13 cycles
 SCF Done:  E(RB3LYP) =  -1387.31541164     A.U. after   12 cycles
 SCF Done:  E(RB3LYP) =  -1387.31542134     A.U. after   11 cycles
 SCF Done:  E(RB3LYP) =  -1387.31542560     A.U. after   10 cycles
 SCF Done:  E(RB3LYP) =  -1387.31542811     A.U. after    8 cycles
 SCF Done:  E(RB3LYP) =  -1387.31542863     A.U. after    8 cycles
 SCF Done:  E(RB3LYP) =  -1387.31542908     A.U. after    7 cycles
 SCF Done:  E(RB3LYP) =  -1387.31542884     A.U. after    7 cycles
 Optimization completed.
    -- Stationary point found.

                         Standard orientation:
 ---------------------------------------------------------------------
 Center     Atomic      Atomic             Coordinates (Angstroms)
 Number     Number       Type             X           Y           Z
 ---------------------------------------------------------------------
      1          6           0       -1.618707    1.135992    2.988246
      2          6           0       -1.508461    2.158512    2.132890
      3          6           0       -1.530829    1.939976    0.634621
      4          6           0       -1.405250    0.459495    0.156261
      5          6           0       -1.151537   -0.649095    1.212744
      6          6           0       -1.790026   -0.300410    2.580331
      7          6           0       -0.316655    0.501127   -0.952662
      8          6           0        1.084132    0.298706   -0.420540
      9          6           0        1.409645   -0.466250    0.643589
     10          6           0        0.329758   -1.043817    1.457791
     11          6           0        2.826981   -0.612785    1.174492
     12          8           0        3.110136   -0.082818    2.231790
     13          6           0        3.892971   -1.395719    0.391781
     14          6           0        3.349112   -2.463570   -0.573001
     15          6           0        4.835518   -0.395249   -0.313990
     16          8           0        0.568345   -1.858199    2.342628
     17          6           0       -0.185564    1.960879   -1.439132
     18          6           0        1.257225    2.011426   -1.996698
     19          8           0        1.965237    1.028244   -1.129640
     20          6           0       -0.443656    2.744193   -0.136753
     21          8           0       -0.544587   -0.467437   -1.959774
     22          6           0       -1.877769   -1.864696    0.576619
     23          6           0       -3.102629   -1.225223   -0.068805
     24          8           0       -2.642065    0.087293   -0.505278
     25          6           0       -3.759917   -1.916850   -1.245366
     26          6           0       -4.906970   -1.156114   -1.866663
     27          6           0       -3.385689   -3.124731   -1.678492
     28          6           0        1.353495    1.516345   -3.441664
     29          6           0        1.994468    3.336652   -1.825661
     30          1           0       -0.925057    2.199426   -2.209933
     31          1           0       -2.510214    2.268878    0.257957
     32          6           0       -1.421716    3.587968    2.608006
     33          1           0       -1.628263    1.341719    4.057729
     34          1           0       -1.351974   -0.971892    3.324792
     35          1           0       -2.864530   -0.537097    2.555275
     36          1           0        4.480485   -1.892700    1.175908
     37          1           0        4.177053   -2.797270   -1.213001
     38          1           0        2.610184   -2.011092   -1.246466
     39          1           0        4.320662    0.137915   -1.118474
     40          1           0        5.689482   -0.930158   -0.744823
     41          1           0        5.216099    0.341982    0.399990
     42          1           0        0.470565    2.781751    0.466005
     43          1           0       -0.750011    3.778042   -0.320185
     44          1           0       -1.519051   -0.507466   -2.035691
     45          1           0       -2.129303   -2.621530    1.324021
     46          1           0       -1.241054   -2.322203   -0.185585
     47          1           0       -3.880225   -1.052304    0.691913
     48          1           0       -5.703247   -0.980190   -1.130257
     49          1           0       -4.581179   -0.169415   -2.215285
     50          1           0       -5.338215   -1.701307   -2.711310
     51          1           0       -2.573970   -3.686192   -1.227239
     52          1           0       -3.898429   -3.605421   -2.507929
     53          1           0        2.404266    1.396787   -3.725580
     54          1           0        0.899195    2.249170   -4.118548
     55          1           0        0.838654    0.561511   -3.562390
     56          1           0        3.023284    3.243837   -2.187951
     57          1           0        1.496861    4.117612   -2.411391
     58          1           0        2.030039    3.654453   -0.781175
     59          1           0       -1.485961    3.645310    3.698849
     60          1           0       -0.483407    4.068479    2.302791
     61          1           0       -2.236803    4.195177    2.188515
     62          6           0        2.741196   -3.680078    0.136683
     63          1           0        2.330036   -4.393187   -0.587264
     64          1           0        3.502801   -4.206179    0.725624
     65          1           0        1.939950   -3.393213    0.825528
 ---------------------------------------------------------------------

 The electronic state is 1-A.
 Alpha  occ. eigenvalues --  -19.19669 -19.16668 -19.15800 -19.12676 -19.12581
 Alpha  occ. eigenvalues --  -10.27077 -10.26997 -10.26822 -10.26669 -10.25787
 Alpha  occ. eigenvalues --  -10.25738 -10.25144 -10.21273 -10.20798 -10.20643
 Alpha  occ. eigenvalues --  -10.20301 -10.19869 -10.19482 -10.19249 -10.19234
 Alpha  occ. eigenvalues --  -10.19164 -10.18906 -10.18894 -10.18708 -10.18381
 Alpha  occ. eigenvalues --  -10.18340 -10.18324 -10.17994 -10.17223 -10.16845
 Alpha  occ. eigenvalues --  -10.15981  -1.09039  -1.05853  -1.03225  -1.02415
 Alpha  occ. eigenvalues --   -1.02188  -0.86642  -0.83677  -0.82398  -0.81358
 Alpha  occ. eigenvalues --   -0.80201  -0.79498  -0.76609  -0.74225  -0.73116
 Alpha  occ. eigenvalues --   -0.71796  -0.71485  -0.70093  -0.69487  -0.67799
 Alpha  occ. eigenvalues --   -0.64990  -0.63958  -0.63206  -0.61501  -0.60546
 Alpha  occ. eigenvalues --   -0.59338  -0.59092  -0.56925  -0.55497  -0.53654
 Alpha  occ. eigenvalues --   -0.53002  -0.52220  -0.50779  -0.50338  -0.49222
 Alpha  occ. eigenvalues --   -0.48034  -0.46979  -0.46448  -0.46243  -0.45769
 Alpha  occ. eigenvalues --   -0.45242  -0.44612  -0.43925  -0.43396  -0.43193
 Alpha  occ. eigenvalues --   -0.42656  -0.41975  -0.41859  -0.41525  -0.41307
 Alpha  occ. eigenvalues --   -0.40734  -0.40624  -0.40596  -0.40180  -0.40105
 Alpha  occ. eigenvalues --   -0.39323  -0.39015  -0.38480  -0.38204  -0.38006
 Alpha  occ. eigenvalues --   -0.37658  -0.37536  -0.37407  -0.37057  -0.36790
 Alpha  occ. eigenvalues --   -0.36443  -0.35431  -0.35080  -0.34500  -0.34346
 Alpha  occ. eigenvalues --   -0.33611  -0.33502  -0.32991  -0.32683  -0.31918
 Alpha  occ. eigenvalues --   -0.31437  -0.31245  -0.31024  -0.28106  -0.26683
 Alpha  occ. eigenvalues --   -0.26333  -0.24748  -0.24068  -0.23336  -0.22614
 Alpha virt. eigenvalues --   -0.04512  -0.01340   0.00328   0.02362   0.04991
 Alpha virt. eigenvalues --    0.07273   0.08444   0.08931   0.09016   0.10171
 Alpha virt. eigenvalues --    0.10785   0.10938   0.11081   0.12071   0.12332

 Mulliken atomic charges:
              1
     1  C   -0.183770
     2  C    0.194093
     3  C   -0.188742
     4  C    0.324231
     5  C   -0.052855
     6  C   -0.335485
     7  C    0.200907
     8  C    0.403527
     9  C   -0.101930
    10  C    0.441963
    11  C    0.419501
    12  O   -0.439114
    13  C   -0.144539
    14  C   -0.265152
    15  C   -0.465165
    16  O   -0.507534
    17  C   -0.165041
    18  C    0.306763
    19  O   -0.541432
    20  C   -0.322867
    21  O   -0.658441
    22  C   -0.326057
    23  C    0.095983
    24  O   -0.591788
    25  C    0.182212
    26  C   -0.507938
    27  C   -0.393439
    28  C   -0.468837
    29  C   -0.459576
    30  H    0.143536
    31  H    0.163215
    32  C   -0.519550
    33  H    0.124094
    34  H    0.187080
    35  H    0.145485
    36  H    0.154777
    37  H    0.128972
    38  H    0.144799
    39  H    0.161328
    40  H    0.142747
    41  H    0.160113
    42  H    0.169818
    43  H    0.150895
    44  H    0.414153
    45  H    0.168959
    46  H    0.170006
    47  H    0.138998
    48  H    0.156672
    49  H    0.170519
    50  H    0.154377
    51  H    0.153409
    52  H    0.142196
    53  H    0.155658
    54  H    0.143711
    55  H    0.193138
    56  H    0.163009
    57  H    0.150920
    58  H    0.164596
    59  H    0.158932
    60  H    0.158345
    61  H    0.148888
    62  C   -0.464870
    63  H    0.135880
    64  H    0.141382
    65  H    0.174336
 Sum of Mulliken atomic charges =   0.00000

 Dipole moment (field-independent basis, Debye):
    X=             -3.7287    Y=              2.7402    Z=             -4.1604  Tot=              6.2226
 Quadrupole moment (field-independent basis, Debye-Ang):
   XX=           -180.8112   YY=           -175.7787   ZZ=           -190.6229
   XY=              3.0988   XZ=             -9.5079   YZ=              0.7134

 Normal termination of Gaussian 09 at Wed Mar 24 16:24:32 2021.
