 Gaussian 09, Revision B.01,
 Gaussian 09:  EM64L-G09RevB.01 12-Aug-2010

 ---------------------------------------
 # opt rb3lyp/6-31g(d) geom=connectivity
 ---------------------------------------

 -------------------
 Title Card Required
 -------------------
 Symbolic Z-matrix:
 Charge =  0 Multiplicity = 1

 SCF Done:  E(RB3LYP) =  -1387.30078008     A.U. after   16 cycles
 SCF Done:  E(RB3LYP) =  -1387.31364188     A.U. after   16 cycles
 SCF Done:  E(RB3LYP) =  -1387.31573474     A.U. after   16 cycles
 SCF Done:  E(RB3LYP) =  -1387.31530722     A.U. after   13 cycles
 SCF Done:  E(RB3LYP) =  -1387.31653132     A.U. after   13 cycles
 SCF Done:  E(RB3LYP) =  -1387.31674946     A.U. after   12 cycles
 SCF Done:  E(RB3LYP) =  -1387.31687310     A.U. after   11 cycles
 SCF Done:  E(RB3LYP) =  -1387.31691886     A.U. after   13 cycles
 SCF Done:  E(RB3LYP) =  -1387.31691432     A.U. after   12 cycles
 SCF Done:  E(RB3LYP) =  -1387.31694461     A.U. after   10 cycles
 SCF Done:  E(RB3LYP) =  -1387.31694965     A.U. after   12 cycles
 SCF Done:  E(RB3LYP) =  -1387.31694862     A.U. after   11 cycles
 SCF Done:  E(RB3LYP) =  -1387.31695368     A.U. after   10 cycles
 SCF Done:  E(RB3LYP) =  -1387.31694854     A.U. after   10 cycles
 SCF Done:  E(RB3LYP) =  -1387.31694741     A.U. after    8 cycles
 SCF Done:  E(RB3LYP) =  -1387.31694653     A.U. after   19 cycles
 SCF Done:  E(RB3LYP) =  -1387.31694621     A.U. after    6 cycles
 Optimization completed.
    -- Stationary point found.

                         Standard orientation:
 ---------------------------------------------------------------------
 Center     Atomic      Atomic             Coordinates (Angstroms)
 Number     Number       Type             X           Y           Z
 ---------------------------------------------------------------------
      1          6           0       -2.196827    0.535025    2.879829
      2          6           0       -2.843458    1.316941    2.007283
      3          6           0       -2.372637    1.403871    0.574323
      4          6           0       -1.654591    0.136134    0.010220
      5          6           0       -1.105789   -0.886362    1.053548
      6          6           0       -1.007685   -0.304395    2.498985
      7          6           0       -0.560918    0.716561   -0.958511
      8          6           0        0.837934    0.687073   -0.372432
      9          6           0        1.322068   -0.345642    0.355315
     10          6           0        0.338575   -1.380988    0.756235
     11          6           0        2.720059   -0.451551    0.902728
     12          8           0        2.872461   -0.780274    2.068175
     13          6           0        3.895020   -0.143029   -0.027438
     14          6           0        5.249895   -0.191725    0.707303
     15          6           0        3.842402   -1.040559   -1.283088
     16          8           0        0.661318   -2.533771    0.994267
     17          6           0       -0.782959    2.241927   -1.071484
     18          6           0        0.631465    2.785494   -1.373951
     19          8           0        1.514537    1.803162   -0.689418
     20          6           0       -1.402787    2.582611    0.296464
     21          8           0       -0.523912    0.020037   -2.184987
     22          6           0       -2.128077   -2.037536    1.006207
     23          6           0       -2.807466   -1.959273   -0.363355
     24          8           0       -2.599067   -0.581017   -0.805860
     25          6           0       -2.378278   -2.905068   -1.474471
     26          6           0       -3.245114   -2.827059   -2.711041
     27          6           0       -1.343922   -3.746291   -1.387853
     28          6           0        0.964189    2.737980   -2.866943
     29          6           0        0.968159    4.145971   -0.772585
     30          1           0       -1.477378    2.475393   -1.884325
     31          1           0       -3.243866    1.539695   -0.080144
     32          6           0       -4.024847    2.169441    2.390860
     33          1           0       -2.520771    0.502428    3.919183
     34          1           0       -0.081125    0.277819    2.602358
     35          1           0       -0.893674   -1.148987    3.187721
     36          1           0        3.735986    0.890023   -0.367609
     37          1           0        5.993998    0.298484    0.064209
     38          1           0        5.170161    0.417847    1.614941
     39          1           0        3.884499   -2.102678   -1.020881
     40          1           0        4.694489   -0.819048   -1.936038
     41          1           0        2.924537   -0.874764   -1.854942
     42          1           0       -0.633205    2.614153    1.077294
     43          1           0       -1.913651    3.550393    0.307601
     44          1           0       -1.376851   -0.461610   -2.212574
     45          1           0       -1.637101   -2.991187    1.202820
     46          1           0       -2.882750   -1.878263    1.781792
     47          1           0       -3.895424   -2.058016   -0.251635
     48          1           0       -3.294524   -1.803898   -3.105365
     49          1           0       -2.873655   -3.481839   -3.504549
     50          1           0       -4.279968   -3.119344   -2.482905
     51          1           0       -0.705613   -3.813383   -0.513768
     52          1           0       -1.089771   -4.395863   -2.222394
     53          1           0        0.724013    1.758141   -3.285825
     54          1           0        0.386450    3.498478   -3.404653
     55          1           0        2.028498    2.944237   -3.020376
     56          1           0        0.332752    4.918923   -1.218592
     57          1           0        0.822526    4.158648    0.310399
     58          1           0        2.012098    4.402280   -0.980238
     59          1           0       -4.268251    2.065567    3.453009
     60          1           0       -3.835275    3.233387    2.191683
     61          1           0       -4.915703    1.897404    1.807773
     62          6           0        5.756416   -1.588430    1.089361
     63          1           0        6.705693   -1.511352    1.632351
     64          1           0        5.039025   -2.100901    1.735616
     65          1           0        5.936158   -2.213978    0.207587
 ---------------------------------------------------------------------

 The electronic state is 1-A.
 Alpha  occ. eigenvalues --  -19.19833 -19.16695 -19.14953 -19.13043 -19.12587
 Alpha  occ. eigenvalues --  -10.27052 -10.26880 -10.26849 -10.26436 -10.26074
 Alpha  occ. eigenvalues --  -10.25742 -10.24672 -10.21292 -10.20514 -10.20304
 Alpha  occ. eigenvalues --  -10.20207 -10.19732 -10.19572 -10.19495 -10.19335
 Alpha  occ. eigenvalues --  -10.18948 -10.18854 -10.18616 -10.18555 -10.18443
 Alpha  occ. eigenvalues --  -10.18409 -10.18263 -10.17486 -10.16888 -10.16773
 Alpha  occ. eigenvalues --  -10.15369  -1.09133  -1.05736  -1.03390  -1.02160
 Alpha  occ. eigenvalues --   -1.01950  -0.86856  -0.83847  -0.81965  -0.81141
 Alpha  occ. eigenvalues --   -0.79883  -0.79235  -0.76792  -0.74004  -0.73029
 Alpha  occ. eigenvalues --   -0.72128  -0.71028  -0.70183  -0.68698  -0.68017
 Alpha  occ. eigenvalues --   -0.64925  -0.64205  -0.63531  -0.62043  -0.60701
 Alpha  occ. eigenvalues --   -0.59107  -0.58356  -0.56520  -0.54384  -0.53163
 Alpha  occ. eigenvalues --   -0.52802  -0.51752  -0.50579  -0.49761  -0.48978
 Alpha  occ. eigenvalues --   -0.47650  -0.47552  -0.46960  -0.46340  -0.46038
 Alpha  occ. eigenvalues --   -0.45077  -0.44503  -0.44176  -0.43960  -0.42818
 Alpha  occ. eigenvalues --   -0.42558  -0.42189  -0.42120  -0.41670  -0.41097
 Alpha  occ. eigenvalues --   -0.40846  -0.40535  -0.40366  -0.39951  -0.39248
 Alpha  occ. eigenvalues --   -0.38959  -0.38763  -0.38537  -0.38292  -0.37973
 Alpha  occ. eigenvalues --   -0.37611  -0.37421  -0.36960  -0.36613  -0.36450
 Alpha  occ. eigenvalues --   -0.35941  -0.35486  -0.35095  -0.34865  -0.34571
 Alpha  occ. eigenvalues --   -0.33526  -0.33338  -0.32891  -0.32188  -0.32046
 Alpha  occ. eigenvalues --   -0.31519  -0.31092  -0.30834  -0.27424  -0.27210
 Alpha  occ. eigenvalues --   -0.25302  -0.24524  -0.24287  -0.23392  -0.22643
 Alpha virt. eigenvalues --   -0.04304  -0.01611   0.00981   0.01538   0.05426
 Alpha virt. eigenvalues --    0.07042   0.08464   0.08716   0.09465   0.10378
 Alpha virt. eigenvalues --    0.10636   0.10833   0.11192   0.11678   0.12761

 Mulliken atomic charges:
              1
     1  C   -0.197274
     2  C    0.204310
     3  C   -0.200473
     4  C    0.323146
     5  C   -0.051053
     6  C   -0.325378
     7  C    0.202327
     8  C    0.400993
     9  C   -0.091941
    10  C    0.419238
    11  C    0.429061
    12  O   -0.456746
    13  C   -0.178012
    14  C   -0.244944
    15  C   -0.461860
    16  O   -0.483703
    17  C   -0.157096
    18  C    0.300408
    19  O   -0.538076
    20  C   -0.308517
    21  O   -0.671745
    22  C   -0.332563
    23  C    0.094317
    24  O   -0.590082
    25  C    0.180493
    26  C   -0.513858
    27  C   -0.404802
    28  C   -0.466845
    29  C   -0.460997
    30  H    0.146000
    31  H    0.149735
    32  C   -0.520858
    33  H    0.125461
    34  H    0.173680
    35  H    0.168215
    36  H    0.160929
    37  H    0.120306
    38  H    0.142832
    39  H    0.163575
    40  H    0.144797
    41  H    0.162209
    42  H    0.160196
    43  H    0.150698
    44  H    0.430942
    45  H    0.189402
    46  H    0.151300
    47  H    0.135449
    48  H    0.159807
    49  H    0.157335
    50  H    0.154098
    51  H    0.185358
    52  H    0.136606
    53  H    0.195025
    54  H    0.145116
    55  H    0.155321
    56  H    0.152038
    57  H    0.161866
    58  H    0.162426
    59  H    0.157645
    60  H    0.153873
    61  H    0.156598
    62  C   -0.452957
    63  H    0.134942
    64  H    0.175430
    65  H    0.136275
 Sum of Mulliken atomic charges =   0.00000

 Dipole moment (field-independent basis, Debye):
    X=             -4.1291    Y=              4.3458    Z=             -2.0187  Tot=              6.3254
 Quadrupole moment (field-independent basis, Debye-Ang):
   XX=           -181.8183   YY=           -177.9615   ZZ=           -186.2288
   XY=              5.2149   XZ=             -9.0744   YZ=              2.6689

 Normal termination of Gaussian 09 at Wed Mar 24 14:31:32 2021.
