 Gaussian 09, Revision B.01,
 Gaussian 09:  EM64L-G09RevB.01 12-Aug-2010

 ---------------------------------------
 # opt rb3lyp/6-31g(d) geom=connectivity
 ---------------------------------------

 -------------------
 Title Card Required
 -------------------
 Symbolic Z-matrix:
 Charge =  0 Multiplicity = 1

 SCF Done:  E(RB3LYP) =  -1387.30449688     A.U. after   16 cycles
 SCF Done:  E(RB3LYP) =  -1387.31656409     A.U. after   13 cycles
 SCF Done:  E(RB3LYP) =  -1387.31869010     A.U. after   13 cycles
 SCF Done:  E(RB3LYP) =  -1387.31875584     A.U. after   13 cycles
 SCF Done:  E(RB3LYP) =  -1387.31919053     A.U. after   13 cycles
 SCF Done:  E(RB3LYP) =  -1387.31941529     A.U. after   12 cycles
 SCF Done:  E(RB3LYP) =  -1387.31940302     A.U. after   13 cycles
 SCF Done:  E(RB3LYP) =  -1387.31952757     A.U. after   11 cycles
 SCF Done:  E(RB3LYP) =  -1387.31955145     A.U. after   10 cycles
 SCF Done:  E(RB3LYP) =  -1387.31957546     A.U. after   11 cycles
 SCF Done:  E(RB3LYP) =  -1387.32018414     A.U. after   13 cycles
 SCF Done:  E(RB3LYP) =  -1387.32027084     A.U. after   15 cycles
 SCF Done:  E(RB3LYP) =  -1387.32046842     A.U. after   12 cycles
 SCF Done:  E(RB3LYP) =  -1387.32049674     A.U. after   11 cycles
 SCF Done:  E(RB3LYP) =  -1387.32050712     A.U. after   10 cycles
 SCF Done:  E(RB3LYP) =  -1387.32051509     A.U. after   10 cycles
 SCF Done:  E(RB3LYP) =  -1387.32052111     A.U. after   10 cycles
 SCF Done:  E(RB3LYP) =  -1387.32051888     A.U. after   10 cycles
 SCF Done:  E(RB3LYP) =  -1387.32052038     A.U. after    8 cycles
 SCF Done:  E(RB3LYP) =  -1387.32052036     A.U. after    6 cycles
 Optimization completed.
    -- Stationary point found.

                         Standard orientation:
 ---------------------------------------------------------------------
 Center     Atomic      Atomic             Coordinates (Angstroms)
 Number     Number       Type             X           Y           Z
 ---------------------------------------------------------------------
      1          6           0       -2.279344    1.008997    2.668089
      2          6           0       -2.750885    1.809860    1.704845
      3          6           0       -2.151835    1.748747    0.318085
      4          6           0       -1.591650    0.357154   -0.127423
      5          6           0       -1.309670   -0.666637    1.013754
      6          6           0       -1.189536    0.000531    2.418304
      7          6           0       -0.343091    0.714701   -1.013830
      8          6           0        0.978896    0.467004   -0.314284
      9          6           0        1.214685   -0.610163    0.470899
     10          6           0        0.029648   -1.436056    0.820794
     11          6           0        2.530806   -0.959322    1.110022
     12          8           0        2.554404   -1.311615    2.277582
     13          6           0        3.792518   -0.912534    0.247021
     14          6           0        5.059336   -0.982076    1.115709
     15          6           0        3.709182   -2.050765   -0.795948
     16          8           0        0.112074   -2.625654    1.076110
     17          6           0       -0.295932    2.248609   -1.183397
     18          6           0        1.211920    2.539871   -1.363628
     19          8           0        1.857377    1.444266   -0.591312
     20          6           0       -0.980011    2.744561    0.103146
     21          8           0       -0.330836   -0.013728   -2.226724
     22          6           0       -2.523794   -1.618946    0.970638
     23          6           0       -3.215240   -1.404285   -0.391526
     24          8           0       -2.524613   -0.283198   -1.007731
     25          6           0       -3.211995   -2.589190   -1.336742
     26          6           0       -1.888384   -3.221585   -1.691306
     27          6           0       -4.375320   -3.046422   -1.811476
     28          6           0        1.658616    2.397740   -2.820529
     29          6           0        1.719499    3.841874   -0.752327
     30          1           0       -0.862323    2.556581   -2.067566
     31          1           0       -2.926350    1.988416   -0.422622
     32          6           0       -3.836028    2.827681    1.940180
     33          1           0       -2.682343    1.078894    3.677340
     34          1           0       -1.217208   -0.795274    3.170698
     35          1           0       -0.200797    0.467982    2.525397
     36          1           0        3.779975    0.039896   -0.299243
     37          1           0        5.098541   -1.959120    1.612146
     38          1           0        4.969517   -0.244966    1.922786
     39          1           0        3.717171   -3.029092   -0.301409
     40          1           0        2.793339   -1.980237   -1.391480
     41          1           0        4.559515   -2.008303   -1.483924
     42          1           0       -0.294739    2.689724    0.957674
     43          1           0       -1.324809    3.780862    0.033277
     44          1           0       -1.257949   -0.315922   -2.331186
     45          1           0       -2.184937   -2.646385    1.119495
     46          1           0       -3.221862   -1.374407    1.775035
     47          1           0       -4.254502   -1.089455   -0.242262
     48          1           0       -1.405975   -3.668017   -0.813794
     49          1           0       -2.019376   -4.003646   -2.444856
     50          1           0       -1.179872   -2.482923   -2.082417
     51          1           0       -4.424121   -3.906043   -2.475172
     52          1           0       -5.323623   -2.583253   -1.548880
     53          1           0        2.751552    2.422669   -2.881938
     54          1           0        1.262716    3.227690   -3.416913
     55          1           0        1.297111    1.459475   -3.247650
     56          1           0        1.488094    3.908175    0.313702
     57          1           0        2.805156    3.915896   -0.871706
     58          1           0        1.261933    4.696910   -1.261927
     59          1           0       -4.177976    2.818125    2.979967
     60          1           0       -3.490835    3.844994    1.708700
     61          1           0       -4.703888    2.638979    1.293079
     62          6           0        6.357993   -0.732041    0.341012
     63          1           0        6.340416    0.241867   -0.165045
     64          1           0        7.219700   -0.736498    1.018263
     65          1           0        6.539195   -1.498001   -0.421454
 ---------------------------------------------------------------------

 The electronic state is 1-A.
 Alpha  occ. eigenvalues --  -19.19967 -19.16787 -19.15397 -19.13208 -19.12544
 Alpha  occ. eigenvalues --  -10.27133 -10.27066 -10.27010 -10.26391 -10.26191
 Alpha  occ. eigenvalues --  -10.26034 -10.24577 -10.21341 -10.20692 -10.20471
 Alpha  occ. eigenvalues --  -10.20383 -10.19874 -10.19628 -10.19616 -10.19456
 Alpha  occ. eigenvalues --  -10.19081 -10.19017 -10.18733 -10.18581 -10.18478
 Alpha  occ. eigenvalues --  -10.18258 -10.17915 -10.17386 -10.17041 -10.16812
 Alpha  occ. eigenvalues --  -10.16641  -1.09278  -1.06078  -1.03482  -1.02242
 Alpha  occ. eigenvalues --   -1.02174  -0.87031  -0.83962  -0.82072  -0.81212
 Alpha  occ. eigenvalues --   -0.79941  -0.79498  -0.76900  -0.73835  -0.73142
 Alpha  occ. eigenvalues --   -0.72378  -0.71472  -0.70378  -0.68724  -0.68139
 Alpha  occ. eigenvalues --   -0.64990  -0.64343  -0.63354  -0.62226  -0.60741
 Alpha  occ. eigenvalues --   -0.59043  -0.58396  -0.56679  -0.54737  -0.53458
 Alpha  occ. eigenvalues --   -0.53087  -0.51780  -0.51025  -0.50008  -0.49021
 Alpha  occ. eigenvalues --   -0.47944  -0.47395  -0.46931  -0.46568  -0.46051
 Alpha  occ. eigenvalues --   -0.45106  -0.44657  -0.44448  -0.44145  -0.43014
 Alpha  occ. eigenvalues --   -0.42905  -0.42500  -0.42292  -0.41231  -0.41018
 Alpha  occ. eigenvalues --   -0.40794  -0.40563  -0.40274  -0.40030  -0.39464
 Alpha  occ. eigenvalues --   -0.39231  -0.38980  -0.38732  -0.38500  -0.37876
 Alpha  occ. eigenvalues --   -0.37850  -0.37529  -0.37414  -0.36444  -0.36183
 Alpha  occ. eigenvalues --   -0.35880  -0.35608  -0.35353  -0.34619  -0.34453
 Alpha  occ. eigenvalues --   -0.33821  -0.33470  -0.33282  -0.32947  -0.32177
 Alpha  occ. eigenvalues --   -0.31739  -0.31390  -0.31088  -0.27643  -0.27607
 Alpha  occ. eigenvalues --   -0.25179  -0.24692  -0.24410  -0.23544  -0.22721
 Alpha virt. eigenvalues --   -0.04507  -0.01727   0.00960   0.01503   0.05212
 Alpha virt. eigenvalues --    0.07022   0.08147   0.08579   0.09645   0.10103
 Alpha virt. eigenvalues --    0.10315   0.10702   0.11129   0.12117   0.12901

 Mulliken atomic charges:
              1
     1  C   -0.197327
     2  C    0.202858
     3  C   -0.202598
     4  C    0.326777
     5  C   -0.041343
     6  C   -0.325351
     7  C    0.194495
     8  C    0.398650
     9  C   -0.094733
    10  C    0.416755
    11  C    0.425061
    12  O   -0.456391
    13  C   -0.175162
    14  C   -0.240648
    15  C   -0.460432
    16  O   -0.477391
    17  C   -0.155843
    18  C    0.299576
    19  O   -0.535077
    20  C   -0.307559
    21  O   -0.666089
    22  C   -0.350332
    23  C    0.093081
    24  O   -0.589643
    25  C    0.224619
    26  C   -0.542875
    27  C   -0.403618
    28  C   -0.466380
    29  C   -0.460855
    30  H    0.147620
    31  H    0.147993
    32  C   -0.520832
    33  H    0.126197
    34  H    0.168906
    35  H    0.169918
    36  H    0.154346
    37  H    0.147550
    38  H    0.140132
    39  H    0.159742
    40  H    0.161572
    41  H    0.150742
    42  H    0.160442
    43  H    0.151611
    44  H    0.429859
    45  H    0.194929
    46  H    0.153220
    47  H    0.131044
    48  H    0.190570
    49  H    0.151429
    50  H    0.160483
    51  H    0.140058
    52  H    0.137156
    53  H    0.155892
    54  H    0.145870
    55  H    0.193872
    56  H    0.161821
    57  H    0.163006
    58  H    0.152487
    59  H    0.158156
    60  H    0.154346
    61  H    0.156644
    62  C   -0.452335
    63  H    0.136041
    64  H    0.143516
    65  H    0.143770
 Sum of Mulliken atomic charges =   0.00000

 Dipole moment (field-independent basis, Debye):
    X=             -2.7627    Y=              5.1715    Z=             -2.0586  Tot=              6.2141
 Quadrupole moment (field-independent basis, Debye-Ang):
   XX=           -178.6915   YY=           -179.7480   ZZ=           -189.3897
   XY=              3.4895   XZ=             -9.4715   YZ=              4.2411

 Normal termination of Gaussian 09 at Wed Mar 24 15:12:15 2021.
