 Gaussian 09, Revision B.01,
 Gaussian 09:  EM64L-G09RevB.01 12-Aug-2010

 ---------------------------------------
 # opt rb3lyp/6-31g(d) geom=connectivity
 ---------------------------------------

 -------------------
 Title Card Required
 -------------------
 Symbolic Z-matrix:
 Charge =  0 Multiplicity = 1

 SCF Done:  E(RB3LYP) =  -1387.30412548     A.U. after   16 cycles
 SCF Done:  E(RB3LYP) =  -1387.31651210     A.U. after   13 cycles
 SCF Done:  E(RB3LYP) =  -1387.31904372     A.U. after   13 cycles
 SCF Done:  E(RB3LYP) =  -1387.31852305     A.U. after   13 cycles
 SCF Done:  E(RB3LYP) =  -1387.31984950     A.U. after   13 cycles
 SCF Done:  E(RB3LYP) =  -1387.31997462     A.U. after   12 cycles
 SCF Done:  E(RB3LYP) =  -1387.32024655     A.U. after   12 cycles
 SCF Done:  E(RB3LYP) =  -1387.32040990     A.U. after   13 cycles
 SCF Done:  E(RB3LYP) =  -1387.32044668     A.U. after   12 cycles
 SCF Done:  E(RB3LYP) =  -1387.32044748     A.U. after   11 cycles
 SCF Done:  E(RB3LYP) =  -1387.32049745     A.U. after   11 cycles
 SCF Done:  E(RB3LYP) =  -1387.32050632     A.U. after   10 cycles
 SCF Done:  E(RB3LYP) =  -1387.32050914     A.U. after   10 cycles
 SCF Done:  E(RB3LYP) =  -1387.32051038     A.U. after    8 cycles
 SCF Done:  E(RB3LYP) =  -1387.32051069     A.U. after    8 cycles
 SCF Done:  E(RB3LYP) =  -1387.32051070     A.U. after    7 cycles
 Optimization completed.
    -- Stationary point found.

                         Standard orientation:
 ---------------------------------------------------------------------
 Center     Atomic      Atomic             Coordinates (Angstroms)
 Number     Number       Type             X           Y           Z
 ---------------------------------------------------------------------
      1          6           0       -0.680595   -0.790708    3.178642
      2          6           0       -0.898587    0.522145    3.037428
      3          6           0       -1.471548    1.089524    1.754969
      4          6           0       -1.478272    0.124743    0.528684
      5          6           0       -0.841585   -1.277875    0.675044
      6          6           0       -0.981471   -1.816172    2.120676
      7          6           0       -0.840675    0.946786   -0.619896
      8          6           0        0.673785    0.828147   -0.681902
      9          6           0        1.383610   -0.291397   -0.344619
     10          6           0        0.645310   -1.417008    0.246141
     11          6           0        2.877114   -0.322421   -0.543712
     12          8           0        3.380919    0.386593   -1.404149
     13          6           0        3.768827   -1.183232    0.358857
     14          6           0        4.238959   -2.464749   -0.385795
     15          6           0        4.947380   -0.335945    0.868457
     16          8           0        1.166813   -2.515335    0.422609
     17          6           0       -0.959474    2.441745   -0.255032
     18          6           0        0.199518    3.078737   -1.054502
     19          8           0        1.209304    1.983241   -1.064801
     20          6           0       -0.782993    2.401167    1.276538
     21          8           0       -1.335580    0.574290   -1.891745
     22          6           0       -1.708824   -2.122429   -0.294214
     23          6           0       -3.104069   -1.503855   -0.124262
     24          8           0       -2.860033   -0.112885    0.156634
     25          6           0       -4.041149   -1.673946   -1.301010
     26          6           0       -4.254538   -3.099222   -1.748383
     27          6           0       -4.669474   -0.639132   -1.868676
     28          6           0       -0.167102    3.386289   -2.507971
     29          6           0        0.888915    4.276662   -0.406936
     30          1           0       -1.930962    2.854096   -0.543953
     31          1           0       -2.532041    1.318434    1.931596
     32          6           0       -0.661052    1.494310    4.166724
     33          1           0       -0.304106   -1.164349    4.130071
     34          1           0       -0.320262   -2.682481    2.213675
     35          1           0       -2.003260   -2.195926    2.272677
     36          1           0        3.180165   -1.524115    1.214488
     37          1           0        3.348265   -3.024920   -0.687629
     38          1           0        4.757060   -3.091092    0.354000
     39          1           0        5.502839    0.107627    0.038640
     40          1           0        5.632099   -0.956675    1.458495
     41          1           0        4.597980    0.481791    1.510064
     42          1           0        0.282635    2.358161    1.526634
     43          1           0       -1.191651    3.286475    1.771862
     44          1           0       -2.283725    0.381769   -1.753369
     45          1           0       -1.672795   -3.185493   -0.043323
     46          1           0       -1.364590   -1.995502   -1.325178
     47          1           0       -3.595055   -1.944088    0.759470
     48          1           0       -3.326759   -3.548979   -2.124198
     49          1           0       -4.595158   -3.728611   -0.914696
     50          1           0       -5.004999   -3.155599   -2.541771
     51          1           0       -4.547400    0.375091   -1.502575
     52          1           0       -5.347548   -0.784206   -2.705318
     53          1           0        0.735598    3.646501   -3.069662
     54          1           0       -0.853538    4.240099   -2.545484
     55          1           0       -0.646120    2.527633   -2.981191
     56          1           0        1.740648    4.591253   -1.017770
     57          1           0        0.188093    5.116084   -0.338574
     58          1           0        1.257523    4.049266    0.595956
     59          1           0       -0.313515    0.976542    5.065959
     60          1           0        0.086172    2.255718    3.908538
     61          1           0       -1.583119    2.035219    4.423689
     62          6           0        5.156337   -2.245246   -1.593752
     63          1           0        5.387114   -3.206291   -2.068827
     64          1           0        4.690786   -1.597836   -2.342685
     65          1           0        6.108171   -1.784358   -1.306959
 ---------------------------------------------------------------------

 The electronic state is 1-A.
 Alpha  occ. eigenvalues --  -19.19884 -19.16790 -19.15918 -19.12770 -19.11624
 Alpha  occ. eigenvalues --  -10.27773 -10.27240 -10.26701 -10.25947 -10.25868
 Alpha  occ. eigenvalues --  -10.25751 -10.25371 -10.21416 -10.20958 -10.20721
 Alpha  occ. eigenvalues --  -10.20544 -10.20120 -10.19773 -10.19698 -10.19411
 Alpha  occ. eigenvalues --  -10.19276 -10.19083 -10.19055 -10.18815 -10.18478
 Alpha  occ. eigenvalues --  -10.18434 -10.18055 -10.17320 -10.16285 -10.15904
 Alpha  occ. eigenvalues --  -10.15034  -1.09606  -1.06191  -1.03017  -1.02724
 Alpha  occ. eigenvalues --   -1.01581  -0.86925  -0.83717  -0.82516  -0.81450
 Alpha  occ. eigenvalues --   -0.80395  -0.78435  -0.76688  -0.74417  -0.73333
 Alpha  occ. eigenvalues --   -0.71858  -0.70502  -0.69974  -0.69639  -0.68143
 Alpha  occ. eigenvalues --   -0.65446  -0.63972  -0.63346  -0.61528  -0.60788
 Alpha  occ. eigenvalues --   -0.59516  -0.58102  -0.57036  -0.54498  -0.53929
 Alpha  occ. eigenvalues --   -0.52822  -0.51797  -0.50837  -0.50447  -0.49268
 Alpha  occ. eigenvalues --   -0.48027  -0.47221  -0.46623  -0.46446  -0.45892
 Alpha  occ. eigenvalues --   -0.45062  -0.44549  -0.44156  -0.43725  -0.43317
 Alpha  occ. eigenvalues --   -0.42634  -0.42462  -0.41973  -0.41832  -0.41562
 Alpha  occ. eigenvalues --   -0.40884  -0.40781  -0.40285  -0.40011  -0.39296
 Alpha  occ. eigenvalues --   -0.39152  -0.38807  -0.38247  -0.37764  -0.37711
 Alpha  occ. eigenvalues --   -0.37466  -0.37194  -0.36910  -0.36704  -0.36475
 Alpha  occ. eigenvalues --   -0.36161  -0.35624  -0.35075  -0.34618  -0.34310
 Alpha  occ. eigenvalues --   -0.34063  -0.33773  -0.32744  -0.32490  -0.32103
 Alpha  occ. eigenvalues --   -0.31379  -0.30371  -0.30021  -0.28367  -0.26617
 Alpha  occ. eigenvalues --   -0.26004  -0.24544  -0.24345  -0.23530  -0.22123
 Alpha virt. eigenvalues --   -0.05199  -0.01331   0.00861   0.01869   0.06295
 Alpha virt. eigenvalues --    0.07723   0.08345   0.08649   0.09536   0.09857
 Alpha virt. eigenvalues --    0.10772   0.10973   0.11236   0.11852   0.12681

 Mulliken atomic charges:
              1
     1  C   -0.191017
     2  C    0.191410
     3  C   -0.189514
     4  C    0.320745
     5  C   -0.049012
     6  C   -0.333439
     7  C    0.195549
     8  C    0.399170
     9  C   -0.072084
    10  C    0.408622
    11  C    0.416044
    12  O   -0.469894
    13  C   -0.137425
    14  C   -0.264307
    15  C   -0.451251
    16  O   -0.512479
    17  C   -0.163573
    18  C    0.299284
    19  O   -0.492322
    20  C   -0.322334
    21  O   -0.657197
    22  C   -0.324013
    23  C    0.104616
    24  O   -0.590092
    25  C    0.187028
    26  C   -0.519652
    27  C   -0.407552
    28  C   -0.468262
    29  C   -0.459429
    30  H    0.145222
    31  H    0.167799
    32  C   -0.519599
    33  H    0.122881
    34  H    0.182353
    35  H    0.146794
    36  H    0.137591
    37  H    0.161549
    38  H    0.127265
    39  H    0.171029
    40  H    0.135216
    41  H    0.133712
    42  H    0.162522
    43  H    0.152316
    44  H    0.416693
    45  H    0.166649
    46  H    0.174618
    47  H    0.144556
    48  H    0.170999
    49  H    0.158566
    50  H    0.162196
    51  H    0.152657
    52  H    0.140094
    53  H    0.164751
    54  H    0.141890
    55  H    0.194044
    56  H    0.170607
    57  H    0.150433
    58  H    0.159724
    59  H    0.158294
    60  H    0.156648
    61  H    0.152347
    62  C   -0.447708
    63  H    0.132087
    64  H    0.166786
    65  H    0.138801
 Sum of Mulliken atomic charges =   0.00000

 Dipole moment (field-independent basis, Debye):
    X=             -5.2031    Y=              2.1798    Z=              2.3516  Tot=              6.1118
 Quadrupole moment (field-independent basis, Debye-Ang):
   XX=           -190.8799   YY=           -172.1200   ZZ=           -183.9913
   XY=              4.1829   XZ=              9.0599   YZ=              2.4164

 Normal termination of Gaussian 09 at Wed Mar 24 17:40:38 2021.
