 Gaussian 09, Revision B.01,
 Gaussian 09:  EM64L-G09RevB.01 12-Aug-2010

 ---------------------------------------
 # opt rb3lyp/6-31g(d) geom=connectivity
 ---------------------------------------

 -------------------
 Title Card Required
 -------------------
 Symbolic Z-matrix:
 Charge =  0 Multiplicity = 1

 SCF Done:  E(RB3LYP) =  -1387.30116584     A.U. after   16 cycles
 SCF Done:  E(RB3LYP) =  -1387.31349512     A.U. after   13 cycles
 SCF Done:  E(RB3LYP) =  -1387.31557918     A.U. after   12 cycles
 SCF Done:  E(RB3LYP) =  -1387.31559515     A.U. after   13 cycles
 SCF Done:  E(RB3LYP) =  -1387.31648377     A.U. after   16 cycles
 SCF Done:  E(RB3LYP) =  -1387.31660577     A.U. after   12 cycles
 SCF Done:  E(RB3LYP) =  -1387.31678098     A.U. after   12 cycles
 SCF Done:  E(RB3LYP) =  -1387.31694160     A.U. after   12 cycles
 SCF Done:  E(RB3LYP) =  -1387.31700528     A.U. after   12 cycles
 SCF Done:  E(RB3LYP) =  -1387.31701976     A.U. after   11 cycles
 SCF Done:  E(RB3LYP) =  -1387.31702770     A.U. after   10 cycles
 SCF Done:  E(RB3LYP) =  -1387.31702971     A.U. after   10 cycles
 SCF Done:  E(RB3LYP) =  -1387.31703079     A.U. after   10 cycles
 SCF Done:  E(RB3LYP) =  -1387.31703111     A.U. after    8 cycles
 SCF Done:  E(RB3LYP) =  -1387.31703121     A.U. after    8 cycles
 SCF Done:  E(RB3LYP) =  -1387.31703121     A.U. after    7 cycles
 SCF Done:  E(RB3LYP) =  -1387.31703132     A.U. after    6 cycles
 SCF Done:  E(RB3LYP) =  -1387.31703132     A.U. after    6 cycles
 SCF Done:  E(RB3LYP) =  -1387.31703133     A.U. after    6 cycles
 SCF Done:  E(RB3LYP) =  -1387.31703130     A.U. after    6 cycles
 Optimization completed on the basis of negligible forces.
    -- Stationary point found.

                         Standard orientation:
 ---------------------------------------------------------------------
 Center     Atomic      Atomic             Coordinates (Angstroms)
 Number     Number       Type             X           Y           Z
 ---------------------------------------------------------------------
      1          6           0       -1.793002    0.733401    3.047175
      2          6           0       -1.833162    1.829366    2.281101
      3          6           0       -1.840143    1.735024    0.770034
      4          6           0       -1.507905    0.332208    0.173691
      5          6           0       -1.068979   -0.801712    1.137173
      6          6           0       -1.758452   -0.673010    2.517021
      7          6           0       -0.464317    0.622677   -0.939655
      8          6           0        0.960771    0.593349   -0.435039
      9          6           0        1.414338   -0.189645    0.566335
     10          6           0        0.458206   -0.953912    1.368904
     11          6           0        2.855847   -0.132371    1.056420
     12          8           0        3.166094    0.711589    1.874451
     13          6           0        3.890230   -1.097937    0.476091
     14          6           0        3.337871   -2.516490    0.229233
     15          6           0        4.491519   -0.457829   -0.795128
     16          8           0        0.841784   -1.718281    2.250874
     17          6           0       -0.554577    2.121842   -1.303337
     18          6           0        0.854940    2.425522   -1.869127
     19          8           0        1.715605    1.486573   -1.097259
     20          6           0       -0.893024    2.748747    0.064288
     21          8           0       -0.552449   -0.285391   -2.022098
     22          6           0       -1.590231   -2.059251    0.395548
     23          6           0       -2.912727   -1.566065   -0.212617
     24          8           0       -2.700316   -0.168149   -0.484078
     25          6           0       -3.383408   -2.306473   -1.447093
     26          6           0       -3.494570   -3.803387   -1.293275
     27          6           0       -3.726967   -1.670405   -2.571947
     28          6           0        0.988973    2.072955   -3.352206
     29          6           0        1.399176    3.824318   -1.591317
     30          1           0       -1.337186    2.315439   -2.043749
     31          1           0       -2.862297    1.944760    0.423050
     32          6           0       -1.943362    3.211816    2.875176
     33          1           0       -1.823588    0.845259    4.130115
     34          1           0       -2.787401   -1.058322    2.453931
     35          1           0       -1.227764   -1.334482    3.207956
     36          1           0        4.680566   -1.146327    1.236682
     37          1           0        2.773926   -2.831923    1.113702
     38          1           0        2.620039   -2.485206   -0.602109
     39          1           0        5.312360   -1.070945   -1.180775
     40          1           0        4.886934    0.539229   -0.576471
     41          1           0        3.739704   -0.358562   -1.585825
     42          1           0       -1.346287    3.740006   -0.026344
     43          1           0        0.019270    2.863899    0.659802
     44          1           0       -1.506230   -0.465610   -2.133367
     45          1           0       -1.718981   -2.904652    1.076627
     46          1           0       -0.897189   -2.353675   -0.398795
     47          1           0       -3.712084   -1.642160    0.542894
     48          1           0       -2.516099   -4.264961   -1.109705
     49          1           0       -4.132476   -4.066541   -0.438296
     50          1           0       -3.924209   -4.261816   -2.188350
     51          1           0       -3.694046   -0.588415   -2.649047
     52          1           0       -4.077837   -2.217747   -3.442669
     53          1           0        0.610008    1.068654   -3.549611
     54          1           0        2.040256    2.126534   -3.653700
     55          1           0        0.423256    2.789219   -3.959302
     56          1           0        0.780587    4.572743   -2.099192
     57          1           0        2.421193    3.911298   -1.973726
     58          1           0        1.416935    4.052489   -0.523281
     59          1           0       -2.006297    3.167488    3.966695
     60          1           0       -1.083696    3.842765    2.615334
     61          1           0       -2.838639    3.731756    2.504943
     62          6           0        4.426680   -3.553651   -0.070719
     63          1           0        5.156858   -3.606181    0.746333
     64          1           0        4.974310   -3.327997   -0.992627
     65          1           0        3.988018   -4.551277   -0.186606
 ---------------------------------------------------------------------

 The electronic state is 1-A.
 Alpha  occ. eigenvalues --  -19.19381 -19.16589 -19.15664 -19.12840 -19.12633
 Alpha  occ. eigenvalues --  -10.27084 -10.26827 -10.26688 -10.26595 -10.25682
 Alpha  occ. eigenvalues --  -10.25655 -10.25266 -10.21261 -10.20911 -10.20516
 Alpha  occ. eigenvalues --  -10.20171 -10.19772 -10.19694 -10.19403 -10.19155
 Alpha  occ. eigenvalues --  -10.19054 -10.18889 -10.18644 -10.18427 -10.18306
 Alpha  occ. eigenvalues --  -10.18268 -10.18149 -10.17906 -10.17112 -10.17047
 Alpha  occ. eigenvalues --  -10.16719  -1.08851  -1.05908  -1.03158  -1.02451
 Alpha  occ. eigenvalues --   -1.02320  -0.86607  -0.83556  -0.82415  -0.81324
 Alpha  occ. eigenvalues --   -0.80158  -0.79651  -0.76528  -0.74195  -0.73055
 Alpha  occ. eigenvalues --   -0.71925  -0.71356  -0.69907  -0.69590  -0.67848
 Alpha  occ. eigenvalues --   -0.65390  -0.64283  -0.63148  -0.61600  -0.60491
 Alpha  occ. eigenvalues --   -0.59169  -0.58318  -0.56859  -0.55505  -0.53858
 Alpha  occ. eigenvalues --   -0.52990  -0.52230  -0.50717  -0.50290  -0.49108
 Alpha  occ. eigenvalues --   -0.47736  -0.47036  -0.46492  -0.46174  -0.45763
 Alpha  occ. eigenvalues --   -0.45052  -0.44927  -0.44259  -0.43549  -0.43116
 Alpha  occ. eigenvalues --   -0.42673  -0.42568  -0.41945  -0.41742  -0.41190
 Alpha  occ. eigenvalues --   -0.40872  -0.40766  -0.40356  -0.40219  -0.39645
 Alpha  occ. eigenvalues --   -0.38908  -0.38709  -0.38653  -0.38089  -0.37869
 Alpha  occ. eigenvalues --   -0.37475  -0.37435  -0.37122  -0.36985  -0.36637
 Alpha  occ. eigenvalues --   -0.36150  -0.35771  -0.34922  -0.34905  -0.34392
 Alpha  occ. eigenvalues --   -0.34035  -0.33799  -0.33457  -0.32680  -0.31889
 Alpha  occ. eigenvalues --   -0.31604  -0.31199  -0.30895  -0.28199  -0.26423
 Alpha  occ. eigenvalues --   -0.25972  -0.24577  -0.23981  -0.23296  -0.22631
 Alpha virt. eigenvalues --   -0.04337  -0.00801   0.00911   0.02446   0.04602
 Alpha virt. eigenvalues --    0.07318   0.08274   0.08890   0.09312   0.10048
 Alpha virt. eigenvalues --    0.10204   0.10949   0.11245   0.12004   0.12424

 Mulliken atomic charges:
              1
     1  C   -0.185142
     2  C    0.195359
     3  C   -0.189660
     4  C    0.321424
     5  C   -0.052824
     6  C   -0.333740
     7  C    0.201295
     8  C    0.403618
     9  C   -0.101290
    10  C    0.439046
    11  C    0.413694
    12  O   -0.438505
    13  C   -0.144800
    14  C   -0.276900
    15  C   -0.463098
    16  O   -0.512194
    17  C   -0.166420
    18  C    0.306221
    19  O   -0.536708
    20  C   -0.324093
    21  O   -0.664014
    22  C   -0.325977
    23  C    0.107164
    24  O   -0.590444
    25  C    0.187269
    26  C   -0.519440
    27  C   -0.408713
    28  C   -0.468787
    29  C   -0.458560
    30  H    0.142268
    31  H    0.165270
    32  C   -0.519986
    33  H    0.123217
    34  H    0.144308
    35  H    0.185379
    36  H    0.148461
    37  H    0.171672
    38  H    0.133066
    39  H    0.150754
    40  H    0.160056
    41  H    0.156744
    42  H    0.150572
    43  H    0.173766
    44  H    0.416350
    45  H    0.165125
    46  H    0.171800
    47  H    0.146012
    48  H    0.169490
    49  H    0.159098
    50  H    0.161715
    51  H    0.153367
    52  H    0.139427
    53  H    0.191669
    54  H    0.155931
    55  H    0.142903
    56  H    0.149258
    57  H    0.162997
    58  H    0.166659
    59  H    0.158287
    60  H    0.159717
    61  H    0.149037
    62  C   -0.448245
    63  H    0.144590
    64  H    0.142374
    65  H    0.143110
 Sum of Mulliken atomic charges =   0.00000

 Dipole moment (field-independent basis, Debye):
    X=             -3.9179    Y=              1.0810    Z=             -3.4148  Tot=              5.3084
 Quadrupole moment (field-independent basis, Debye-Ang):
   XX=           -185.7479   YY=           -170.9167   ZZ=           -188.8067
   XY=              1.7203   XZ=             -8.9681   YZ=             -1.9450

 Normal termination of Gaussian 09 at Wed Mar 24 16:05:16 2021.
