 Gaussian 09, Revision B.01,
 Gaussian 09:  EM64L-G09RevB.01 12-Aug-2010

 ---------------------------------------
 # opt rb3lyp/6-31g(d) geom=connectivity
 ---------------------------------------

 -------------------
 Title Card Required
 -------------------
 Symbolic Z-matrix:
 Charge =  0 Multiplicity = 1

 SCF Done:  E(RB3LYP) =  -1387.30273977     A.U. after   16 cycles
 SCF Done:  E(RB3LYP) =  -1387.31512827     A.U. after   13 cycles
 SCF Done:  E(RB3LYP) =  -1387.31732170     A.U. after   13 cycles
 SCF Done:  E(RB3LYP) =  -1387.31507890     A.U. after   13 cycles
 SCF Done:  E(RB3LYP) =  -1387.31815131     A.U. after   13 cycles
 SCF Done:  E(RB3LYP) =  -1387.31811285     A.U. after   12 cycles
 SCF Done:  E(RB3LYP) =  -1387.31831593     A.U. after   11 cycles
 SCF Done:  E(RB3LYP) =  -1387.31835295     A.U. after   12 cycles
 SCF Done:  E(RB3LYP) =  -1387.31836621     A.U. after   10 cycles
 SCF Done:  E(RB3LYP) =  -1387.31836892     A.U. after   10 cycles
 SCF Done:  E(RB3LYP) =  -1387.31837004     A.U. after    8 cycles
 SCF Done:  E(RB3LYP) =  -1387.31837058     A.U. after    8 cycles
 SCF Done:  E(RB3LYP) =  -1387.31837065     A.U. after    7 cycles
 SCF Done:  E(RB3LYP) =  -1387.31837050     A.U. after    8 cycles
 SCF Done:  E(RB3LYP) =  -1387.31837053     A.U. after    7 cycles
 SCF Done:  E(RB3LYP) =  -1387.31837051     A.U. after    8 cycles
 SCF Done:  E(RB3LYP) =  -1387.31837054     A.U. after    8 cycles
 SCF Done:  E(RB3LYP) =  -1387.31837064     A.U. after    7 cycles
 Optimization completed.
    -- Stationary point found.

                         Standard orientation:
 ---------------------------------------------------------------------
 Center     Atomic      Atomic             Coordinates (Angstroms)
 Number     Number       Type             X           Y           Z
 ---------------------------------------------------------------------
      1          6           0       -1.305687    0.087248    3.272575
      2          6           0       -1.402818    1.320569    2.763044
      3          6           0       -1.675479    1.545389    1.290228
      4          6           0       -1.531224    0.292132    0.371698
      5          6           0       -1.029672   -1.039117    0.993420
      6          6           0       -1.462154   -1.176984    2.473747
      7          6           0       -0.648731    0.777723   -0.809566
      8          6           0        0.830507    0.608195   -0.546869
      9          6           0        1.377425   -0.379718    0.191794
     10          6           0        0.497165   -1.307703    0.910445
     11          6           0        2.873377   -0.504098    0.417395
     12          8           0        3.337119   -0.246742    1.511411
     13          6           0        3.724439   -0.938635   -0.774738
     14          6           0        5.224656   -1.008420   -0.430645
     15          6           0        3.171393   -2.237925   -1.399339
     16          8           0        0.942723   -2.310612    1.456449
     17          6           0       -0.708661    2.320562   -0.853140
     18          6           0        0.619072    2.697986   -1.556023
     19          8           0        1.531811    1.606693   -1.113925
     20          6           0       -0.806561    2.666566    0.647181
     21          8           0       -0.947506    0.108101   -2.020906
     22          6           0       -1.763555   -2.089582    0.121509
     23          6           0       -3.120875   -1.421254   -0.141561
     24          8           0       -2.838703   -0.010326   -0.179799
     25          6           0       -3.842389   -1.875801   -1.392704
     26          6           0       -4.058372   -3.365257   -1.501742
     27          6           0       -4.299244   -1.013160   -2.306436
     28          6           0        0.522444    2.638085   -3.082293
     29          6           0        1.268212    4.003448   -1.104433
     30          1           0       -1.578284    2.679772   -1.412225
     31          1           0       -2.728163    1.843850    1.183027
     32          6           0       -1.318336    2.549536    3.634138
     33          1           0       -1.142586   -0.030173    4.342985
     34          1           0       -2.512538   -1.502458    2.522063
     35          1           0       -0.873669   -1.989336    2.910708
     36          1           0        3.585366   -0.139713   -1.521288
     37          1           0        5.782253   -1.063241   -1.375829
     38          1           0        5.511965   -0.065985    0.049587
     39          1           0        3.817918   -2.561136   -2.223180
     40          1           0        2.164989   -2.086706   -1.801461
     41          1           0        3.120171   -3.047579   -0.665077
     42          1           0       -1.224581    3.661779    0.823933
     43          1           0        0.191052    2.652469    1.099350
     44          1           0       -1.916529   -0.018137   -2.012526
     45          1           0       -1.846981   -3.051060    0.634589
     46          1           0       -1.231091   -2.243466   -0.822430
     47          1           0       -3.791727   -1.606284    0.713749
     48          1           0       -3.107116   -3.907830   -1.571206
     49          1           0       -4.579336   -3.754992   -0.616390
     50          1           0       -4.657293   -3.614107   -2.382252
     51          1           0       -4.184463    0.059413   -2.188128
     52          1           0       -4.827618   -1.359045   -3.190773
     53          1           0        0.073321    1.698045   -3.407562
     54          1           0        1.520830    2.730720   -3.522391
     55          1           0       -0.090941    3.468362   -3.451078
     56          1           0        0.624733    4.850085   -1.368421
     57          1           0        2.230471    4.137846   -1.608819
     58          1           0        1.445101    4.023265   -0.026671
     59          1           0       -1.191297    2.278103    4.686542
     60          1           0       -0.479462    3.199112    3.353114
     61          1           0       -2.229720    3.158795    3.549338
     62          6           0        5.640925   -2.176438    0.472343
     63          1           0        5.444993   -3.146621    0.001760
     64          1           0        5.106416   -2.143182    1.425578
     65          1           0        6.715130   -2.127565    0.685375
 ---------------------------------------------------------------------

 The electronic state is 1-A.
 Alpha  occ. eigenvalues --  -19.19546 -19.16612 -19.15757 -19.12930 -19.12499
 Alpha  occ. eigenvalues --  -10.26962 -10.26874 -10.26749 -10.26656 -10.25732
 Alpha  occ. eigenvalues --  -10.25704 -10.25236 -10.21220 -10.20878 -10.20623
 Alpha  occ. eigenvalues --  -10.20235 -10.19819 -10.19671 -10.19364 -10.19221
 Alpha  occ. eigenvalues --  -10.19095 -10.19030 -10.18744 -10.18492 -10.18403
 Alpha  occ. eigenvalues --  -10.18344 -10.18259 -10.17968 -10.16930 -10.16826
 Alpha  occ. eigenvalues --  -10.15436  -1.08938  -1.05961  -1.03226  -1.02520
 Alpha  occ. eigenvalues --   -1.02231  -0.86646  -0.83652  -0.82440  -0.81364
 Alpha  occ. eigenvalues --   -0.80177  -0.79402  -0.76658  -0.74220  -0.73127
 Alpha  occ. eigenvalues --   -0.71881  -0.70999  -0.69988  -0.69542  -0.67902
 Alpha  occ. eigenvalues --   -0.64897  -0.64531  -0.63127  -0.62055  -0.60557
 Alpha  occ. eigenvalues --   -0.59233  -0.58606  -0.56798  -0.54824  -0.53743
 Alpha  occ. eigenvalues --   -0.52531  -0.52196  -0.50442  -0.50169  -0.49145
 Alpha  occ. eigenvalues --   -0.47872  -0.47464  -0.46697  -0.46297  -0.45763
 Alpha  occ. eigenvalues --   -0.45063  -0.44810  -0.44383  -0.43646  -0.43171
 Alpha  occ. eigenvalues --   -0.42794  -0.42612  -0.41950  -0.41725  -0.41271
 Alpha  occ. eigenvalues --   -0.40771  -0.40694  -0.40312  -0.40077  -0.39155
 Alpha  occ. eigenvalues --   -0.38927  -0.38667  -0.38452  -0.38239  -0.37569
 Alpha  occ. eigenvalues --   -0.37449  -0.37284  -0.37147  -0.37060  -0.36672
 Alpha  occ. eigenvalues --   -0.36327  -0.36129  -0.35145  -0.34825  -0.34409
 Alpha  occ. eigenvalues --   -0.33934  -0.33627  -0.32734  -0.32309  -0.31806
 Alpha  occ. eigenvalues --   -0.31419  -0.31192  -0.30943  -0.28250  -0.26504
 Alpha  occ. eigenvalues --   -0.25923  -0.24568  -0.24030  -0.23264  -0.22765
 Alpha virt. eigenvalues --   -0.04391  -0.00992   0.00950   0.02375   0.05187
 Alpha virt. eigenvalues --    0.07161   0.08353   0.08764   0.09273   0.09965
 Alpha virt. eigenvalues --    0.10222   0.10873   0.11132   0.12007   0.12683

 Mulliken atomic charges:
              1
     1  C   -0.184763
     2  C    0.194244
     3  C   -0.189801
     4  C    0.320987
     5  C   -0.052639
     6  C   -0.334446
     7  C    0.201687
     8  C    0.395615
     9  C   -0.095810
    10  C    0.434224
    11  C    0.429010
    12  O   -0.441988
    13  C   -0.173469
    14  C   -0.246661
    15  C   -0.462710
    16  O   -0.504228
    17  C   -0.165106
    18  C    0.306009
    19  O   -0.540201
    20  C   -0.323437
    21  O   -0.663057
    22  C   -0.324528
    23  C    0.106387
    24  O   -0.590477
    25  C    0.187176
    26  C   -0.519486
    27  C   -0.408101
    28  C   -0.468146
    29  C   -0.459261
    30  H    0.143082
    31  H    0.165750
    32  C   -0.519540
    33  H    0.124065
    34  H    0.144793
    35  H    0.185241
    36  H    0.157987
    37  H    0.121644
    38  H    0.145362
    39  H    0.145837
    40  H    0.154297
    41  H    0.172106
    42  H    0.150846
    43  H    0.169872
    44  H    0.416215
    45  H    0.166450
    46  H    0.170530
    47  H    0.145210
    48  H    0.169924
    49  H    0.159100
    50  H    0.161529
    51  H    0.152647
    52  H    0.139149
    53  H    0.192743
    54  H    0.154957
    55  H    0.143268
    56  H    0.150661
    57  H    0.162638
    58  H    0.164217
    59  H    0.158812
    60  H    0.158298
    61  H    0.149376
    62  C   -0.452719
    63  H    0.137683
    64  H    0.175284
    65  H    0.135661
 Sum of Mulliken atomic charges =   0.00000

 Dipole moment (field-independent basis, Debye):
    X=             -4.3803    Y=              2.7116    Z=             -2.5360  Tot=              5.7420
 Quadrupole moment (field-independent basis, Debye-Ang):
   XX=           -187.7545   YY=           -172.5134   ZZ=           -185.3107
   XY=              7.3136   XZ=             -8.5528   YZ=              2.2382

 Normal termination of Gaussian 09 at Wed Mar 24 14:30:06 2021.
