 Gaussian 09, Revision B.01,
 Gaussian 09:  EM64L-G09RevB.01 12-Aug-2010

 ---------------------------------------
 # opt rb3lyp/6-31g(d) geom=connectivity
 ---------------------------------------

 -------------------
 Title Card Required
 -------------------
 Symbolic Z-matrix:
 Charge =  0 Multiplicity = 1

 SCF Done:  E(RB3LYP) =  -1387.30029479     A.U. after   16 cycles
 SCF Done:  E(RB3LYP) =  -1387.31255781     A.U. after   13 cycles
 SCF Done:  E(RB3LYP) =  -1387.31450763     A.U. after   13 cycles
 SCF Done:  E(RB3LYP) =  -1387.31336156     A.U. after   16 cycles
 SCF Done:  E(RB3LYP) =  -1387.31538473     A.U. after   13 cycles
 SCF Done:  E(RB3LYP) =  -1387.31540362     A.U. after   12 cycles
 SCF Done:  E(RB3LYP) =  -1387.31559006     A.U. after   12 cycles
 SCF Done:  E(RB3LYP) =  -1387.31575898     A.U. after   12 cycles
 SCF Done:  E(RB3LYP) =  -1387.31582263     A.U. after   11 cycles
 SCF Done:  E(RB3LYP) =  -1387.31583328     A.U. after    9 cycles
 SCF Done:  E(RB3LYP) =  -1387.31586770     A.U. after   11 cycles
 SCF Done:  E(RB3LYP) =  -1387.31586644     A.U. after   12 cycles
 SCF Done:  E(RB3LYP) =  -1387.31587193     A.U. after   12 cycles
 SCF Done:  E(RB3LYP) =  -1387.31587912     A.U. after   10 cycles
 SCF Done:  E(RB3LYP) =  -1387.31588649     A.U. after   10 cycles
 SCF Done:  E(RB3LYP) =  -1387.31590050     A.U. after   11 cycles
 SCF Done:  E(RB3LYP) =  -1387.31590007     A.U. after   10 cycles
 SCF Done:  E(RB3LYP) =  -1387.31589951     A.U. after    8 cycles
 SCF Done:  E(RB3LYP) =  -1387.31589966     A.U. after    7 cycles
 SCF Done:  E(RB3LYP) =  -1387.31589986     A.U. after    6 cycles
 Optimization completed.
    -- Stationary point found.

                         Standard orientation:
 ---------------------------------------------------------------------
 Center     Atomic      Atomic             Coordinates (Angstroms)
 Number     Number       Type             X           Y           Z
 ---------------------------------------------------------------------
      1          6           0       -1.762233    0.592952    3.085475
      2          6           0       -1.899340    1.681305    2.319922
      3          6           0       -1.918368    1.586480    0.809263
      4          6           0       -1.497031    0.210325    0.205144
      5          6           0       -0.959639   -0.888136    1.162108
      6          6           0       -1.627409   -0.807463    2.556220
      7          6           0       -0.499738    0.576699   -0.930208
      8          6           0        0.936072    0.634294   -0.463118
      9          6           0        1.464315   -0.117629    0.525711
     10          6           0        0.579274   -0.930099    1.362757
     11          6           0        2.911911    0.034833    0.976516
     12          8           0        3.189375    0.900301    1.783771
     13          6           0        3.985463   -0.869451    0.371393
     14          6           0        3.557889   -2.350666    0.293557
     15          6           0        4.402373   -0.296518   -1.000940
     16          8           0        1.033494   -1.648524    2.249521
     17          6           0       -0.697034    2.068123   -1.280897
     18          6           0        0.676029    2.467052   -1.876916
     19          8           0        1.614913    1.578121   -1.137827
     20          6           0       -1.049716    2.663596    0.096449
     21          8           0       -0.570630   -0.325787   -2.018726
     22          6           0       -1.402150   -2.183341    0.430044
     23          6           0       -2.768219   -1.799891   -0.133292
     24          8           0       -2.654840   -0.378946   -0.440482
     25          6           0       -3.286667   -2.516521   -1.363765
     26          6           0       -4.610918   -2.006263   -1.879769
     27          6           0       -2.648751   -3.546333   -1.928433
     28          6           0        0.795227    2.137428   -3.366404
     29          6           0        1.135375    3.895066   -1.595726
     30          1           0       -1.507162    2.210639   -2.003091
     31          1           0       -2.955960    1.727638    0.473176
     32          6           0       -2.108341    3.051790    2.915397
     33          1           0       -1.785833    0.703798    4.168726
     34          1           0       -2.624242   -1.271646    2.517122
     35          1           0       -1.032260   -1.423031    3.236908
     36          1           0        4.839933   -0.777478    1.054363
     37          1           0        3.105343   -2.637724    1.248445
     38          1           0        2.770873   -2.459460   -0.465542
     39          1           0        4.705243    0.751621   -0.911403
     40          1           0        5.248346   -0.859492   -1.408128
     41          1           0        3.579916   -0.350483   -1.722707
     42          1           0       -0.136328    2.831992    0.677519
     43          1           0       -1.566639    3.624575    0.021625
     44          1           0       -1.516748   -0.567464   -2.069962
     45          1           0       -1.443889   -3.038476    1.109977
     46          1           0       -0.704559   -2.412736   -0.380268
     47          1           0       -3.534902   -1.893621    0.651723
     48          1           0       -4.929060   -2.549905   -2.774203
     49          1           0       -5.394358   -2.113683   -1.116898
     50          1           0       -4.553704   -0.938345   -2.119358
     51          1           0       -1.705511   -3.930970   -1.554294
     52          1           0       -3.064536   -4.055412   -2.794342
     53          1           0        1.833518    2.259560   -3.691935
     54          1           0        0.171037    2.821943   -3.952402
     55          1           0        0.474838    1.113112   -3.565168
     56          1           0        2.141029    4.051640   -1.998834
     57          1           0        0.458686    4.606768   -2.081819
     58          1           0        1.161644    4.113000   -0.525753
     59          1           0       -2.154475    3.003833    4.007607
     60          1           0       -1.302977    3.746620    2.644855
     61          1           0       -3.045443    3.501025    2.556168
     62          6           0        4.713982   -3.305891   -0.025723
     63          1           0        5.514344   -3.220340    0.719700
     64          1           0        4.367053   -4.345497   -0.019799
     65          1           0        5.154142   -3.113778   -1.010646
 ---------------------------------------------------------------------

 The electronic state is 1-A.
 Alpha  occ. eigenvalues --  -19.19349 -19.16606 -19.15672 -19.12826 -19.12604
 Alpha  occ. eigenvalues --  -10.27056 -10.26823 -10.26651 -10.26582 -10.25674
 Alpha  occ. eigenvalues --  -10.25627 -10.25155 -10.21249 -10.20806 -10.20482
 Alpha  occ. eigenvalues --  -10.20203 -10.19698 -10.19577 -10.19144 -10.19052
 Alpha  occ. eigenvalues --  -10.18912 -10.18907 -10.18878 -10.18570 -10.18289
 Alpha  occ. eigenvalues --  -10.18282 -10.18149 -10.17904 -10.17131 -10.17073
 Alpha  occ. eigenvalues --  -10.16716  -1.08824  -1.05753  -1.03138  -1.02321
 Alpha  occ. eigenvalues --   -1.02277  -0.86545  -0.83525  -0.82342  -0.81301
 Alpha  occ. eigenvalues --   -0.80134  -0.79653  -0.76499  -0.74182  -0.73017
 Alpha  occ. eigenvalues --   -0.71932  -0.71285  -0.69883  -0.69488  -0.67706
 Alpha  occ. eigenvalues --   -0.65364  -0.64272  -0.63316  -0.61552  -0.60412
 Alpha  occ. eigenvalues --   -0.59193  -0.58288  -0.56865  -0.55463  -0.53657
 Alpha  occ. eigenvalues --   -0.52907  -0.52095  -0.50660  -0.50279  -0.49124
 Alpha  occ. eigenvalues --   -0.47976  -0.46924  -0.46440  -0.45982  -0.45614
 Alpha  occ. eigenvalues --   -0.45135  -0.45049  -0.44346  -0.43378  -0.43196
 Alpha  occ. eigenvalues --   -0.42604  -0.42417  -0.41891  -0.41504  -0.41233
 Alpha  occ. eigenvalues --   -0.40963  -0.40479  -0.40377  -0.40172  -0.39552
 Alpha  occ. eigenvalues --   -0.38863  -0.38770  -0.38232  -0.38055  -0.37844
 Alpha  occ. eigenvalues --   -0.37595  -0.37383  -0.37362  -0.36937  -0.36700
 Alpha  occ. eigenvalues --   -0.36317  -0.35737  -0.34996  -0.34859  -0.34188
 Alpha  occ. eigenvalues --   -0.33969  -0.33491  -0.33417  -0.32663  -0.31944
 Alpha  occ. eigenvalues --   -0.31626  -0.31191  -0.30888  -0.28002  -0.26667
 Alpha  occ. eigenvalues --   -0.26235  -0.24559  -0.23982  -0.23307  -0.22597
 Alpha virt. eigenvalues --   -0.04316  -0.00729   0.00316   0.02447   0.04591
 Alpha virt. eigenvalues --    0.07283   0.08749   0.08948   0.09298   0.10131
 Alpha virt. eigenvalues --    0.10714   0.10806   0.11258   0.11889   0.12298

 Mulliken atomic charges:
              1
     1  C   -0.184811
     2  C    0.195096
     3  C   -0.188207
     4  C    0.324487
     5  C   -0.056901
     6  C   -0.334155
     7  C    0.202260
     8  C    0.405262
     9  C   -0.103758
    10  C    0.439942
    11  C    0.414096
    12  O   -0.437692
    13  C   -0.146996
    14  C   -0.274082
    15  C   -0.463478
    16  O   -0.511205
    17  C   -0.165562
    18  C    0.305900
    19  O   -0.536353
    20  C   -0.323536
    21  O   -0.660117
    22  C   -0.326279
    23  C    0.097663
    24  O   -0.592053
    25  C    0.180668
    26  C   -0.508121
    27  C   -0.392185
    28  C   -0.468368
    29  C   -0.458355
    30  H    0.142287
    31  H    0.162810
    32  C   -0.519875
    33  H    0.123009
    34  H    0.144806
    35  H    0.186224
    36  H    0.146831
    37  H    0.173602
    38  H    0.131558
    39  H    0.159324
    40  H    0.151180
    41  H    0.156483
    42  H    0.173618
    43  H    0.150475
    44  H    0.414109
    45  H    0.167084
    46  H    0.169619
    47  H    0.139294
    48  H    0.154350
    49  H    0.156891
    50  H    0.171001
    51  H    0.152142
    52  H    0.142226
    53  H    0.156043
    54  H    0.142854
    55  H    0.191420
    56  H    0.162944
    57  H    0.149072
    58  H    0.166772
    59  H    0.158232
    60  H    0.159682
    61  H    0.148576
    62  C   -0.448427
    63  H    0.144732
    64  H    0.143704
    65  H    0.142190
 Sum of Mulliken atomic charges =   0.00000

 Dipole moment (field-independent basis, Debye):
    X=             -4.3257    Y=              1.1768    Z=             -3.4958  Tot=              5.6848
 Quadrupole moment (field-independent basis, Debye-Ang):
   XX=           -183.3817   YY=           -173.8497   ZZ=           -188.4517
   XY=             -1.0901   XZ=             -8.0719   YZ=             -1.8538

 Normal termination of Gaussian 09 at Wed Mar 24 15:13:58 2021.
