 Gaussian 09, Revision B.01,
 Gaussian 09:  EM64L-G09RevB.01 12-Aug-2010

 ---------------------------------------
 # opt rb3lyp/6-31g(d) geom=connectivity
 ---------------------------------------

 -------------------
 Title Card Required
 -------------------
 Symbolic Z-matrix:
 Charge =  0 Multiplicity = 1

 SCF Done:  E(RB3LYP) =  -1387.30450986     A.U. after   16 cycles
 SCF Done:  E(RB3LYP) =  -1387.31681459     A.U. after   13 cycles
 SCF Done:  E(RB3LYP) =  -1387.31866655     A.U. after   13 cycles
 SCF Done:  E(RB3LYP) =  -1387.31814575     A.U. after   13 cycles
 SCF Done:  E(RB3LYP) =  -1387.31954346     A.U. after   13 cycles
 SCF Done:  E(RB3LYP) =  -1387.31994082     A.U. after   13 cycles
 SCF Done:  E(RB3LYP) =  -1387.31950912     A.U. after   13 cycles
 SCF Done:  E(RB3LYP) =  -1387.32026843     A.U. after   13 cycles
 SCF Done:  E(RB3LYP) =  -1387.32030531     A.U. after   11 cycles
 SCF Done:  E(RB3LYP) =  -1387.32031101     A.U. after   11 cycles
 SCF Done:  E(RB3LYP) =  -1387.32032334     A.U. after   10 cycles
 SCF Done:  E(RB3LYP) =  -1387.32032520     A.U. after   10 cycles
 SCF Done:  E(RB3LYP) =  -1387.32032845     A.U. after   10 cycles
 SCF Done:  E(RB3LYP) =  -1387.32033194     A.U. after   10 cycles
 SCF Done:  E(RB3LYP) =  -1387.32033043     A.U. after   10 cycles
 SCF Done:  E(RB3LYP) =  -1387.32032736     A.U. after   10 cycles
 SCF Done:  E(RB3LYP) =  -1387.32032775     A.U. after    7 cycles
 SCF Done:  E(RB3LYP) =  -1387.32033115     A.U. after   10 cycles
 SCF Done:  E(RB3LYP) =  -1387.32033431     A.U. after   10 cycles
 SCF Done:  E(RB3LYP) =  -1387.32033107     A.U. after   10 cycles
 Optimization completed on the basis of negligible forces.
    -- Stationary point found.

                         Standard orientation:
 ---------------------------------------------------------------------
 Center     Atomic      Atomic             Coordinates (Angstroms)
 Number     Number       Type             X           Y           Z
 ---------------------------------------------------------------------
      1          6           0       -1.566130    0.617147    3.159712
      2          6           0       -1.618010    1.738054    2.431272
      3          6           0       -1.736923    1.692004    0.922247
      4          6           0       -1.494226    0.298778    0.260418
      5          6           0       -1.051856   -0.888358    1.156487
      6          6           0       -1.631763   -0.771326    2.587587
      7          6           0       -0.497148    0.588503   -0.891994
      8          6           0        0.950805    0.496914   -0.460632
      9          6           0        1.430877   -0.361837    0.473709
     10          6           0        0.478316   -1.142475    1.270657
     11          6           0        2.913039   -0.399990    0.796207
     12          8           0        3.498157    0.638202    1.049977
     13          6           0        3.622047   -1.750103    0.742225
     14          6           0        3.553675   -2.335262   -0.695533
     15          6           0        5.049044   -1.650132    1.289296
     16          8           0        0.850087   -1.996011    2.073014
     17          6           0       -0.556938    2.096711   -1.214100
     18          6           0        0.831865    2.366598   -1.842520
     19          8           0        1.694477    1.379979   -1.134560
     20          6           0       -0.804324    2.697951    0.184188
     21          8           0       -0.680307   -0.286245   -1.990110
     22          6           0       -1.688214   -2.097061    0.418652
     23          6           0       -3.014793   -1.529298   -0.076681
     24          8           0       -2.729854   -0.130006   -0.368185
     25          6           0       -3.671651   -2.147734   -1.293548
     26          6           0       -4.931575   -1.453614   -1.752881
     27          6           0       -3.202320   -3.246896   -1.892204
     28          6           0        0.882865    2.045698   -3.337904
     29          6           0        1.443292    3.736397   -1.559643
     30          1           0       -1.369096    2.332531   -1.908772
     31          1           0       -2.772818    1.946406    0.655658
     32          6           0       -1.630771    3.103664    3.072799
     33          1           0       -1.515247    0.695339    4.244966
     34          1           0       -1.086448   -1.478843    3.218884
     35          1           0       -2.679071   -1.108856    2.588878
     36          1           0        3.032964   -2.419648    1.380454
     37          1           0        3.994601   -3.340355   -0.664883
     38          1           0        2.500791   -2.471749   -0.972549
     39          1           0        5.042254   -1.320834    2.333011
     40          1           0        5.542324   -2.628016    1.241131
     41          1           0        5.649808   -0.928798    0.728452
     42          1           0        0.142427    2.776164    0.729732
     43          1           0       -1.234741    3.702490    0.141206
     44          1           0       -1.648069   -0.420896   -2.029617
     45          1           0       -1.809811   -2.957218    1.082259
     46          1           0       -1.060198   -2.393317   -0.426109
     47          1           0       -3.754374   -1.540121    0.739573
     48          1           0       -5.689505   -1.453774   -0.957371
     49          1           0       -4.734976   -0.403172   -1.995931
     50          1           0       -5.360655   -1.942472   -2.632389
     51          1           0       -2.307653   -3.762142   -1.557853
     52          1           0       -3.715850   -3.681932   -2.746018
     53          1           0        1.920429    2.066905   -3.686694
     54          1           0        0.318153    2.798267   -3.900316
     55          1           0        0.456974    1.061723   -3.542002
     56          1           0        2.447043    3.793522   -1.991983
     57          1           0        0.828748    4.520197   -2.016599
     58          1           0        1.526417    3.935190   -0.488916
     59          1           0       -1.614916    3.025907    4.164205
     60          1           0       -0.769583    3.712286    2.768552
     61          1           0       -2.530371    3.667747    2.787196
     62          6           0        4.255008   -1.499391   -1.773748
     63          1           0        5.327631   -1.398433   -1.575811
     64          1           0        4.143909   -1.971306   -2.756838
     65          1           0        3.833302   -0.489792   -1.838991
 ---------------------------------------------------------------------

 The electronic state is 1-A.
 Alpha  occ. eigenvalues --  -19.19522 -19.16670 -19.15818 -19.12683 -19.12427
 Alpha  occ. eigenvalues --  -10.27232 -10.27213 -10.26593 -10.26205 -10.25731
 Alpha  occ. eigenvalues --  -10.25710 -10.25198 -10.21344 -10.20846 -10.20553
 Alpha  occ. eigenvalues --  -10.20318 -10.19795 -10.19587 -10.19336 -10.19123
 Alpha  occ. eigenvalues --  -10.18945 -10.18937 -10.18771 -10.18749 -10.18443
 Alpha  occ. eigenvalues --  -10.18114 -10.18084 -10.17564 -10.17497 -10.16241
 Alpha  occ. eigenvalues --  -10.15685  -1.09152  -1.05859  -1.02959  -1.02434
 Alpha  occ. eigenvalues --   -1.02188  -0.86651  -0.83557  -0.82384  -0.81350
 Alpha  occ. eigenvalues --   -0.80199  -0.79244  -0.76548  -0.74265  -0.73092
 Alpha  occ. eigenvalues --   -0.71580  -0.71121  -0.69873  -0.69526  -0.67813
 Alpha  occ. eigenvalues --   -0.65438  -0.64153  -0.63355  -0.61498  -0.60526
 Alpha  occ. eigenvalues --   -0.59356  -0.58607  -0.56904  -0.54587  -0.53468
 Alpha  occ. eigenvalues --   -0.52599  -0.51966  -0.50659  -0.50254  -0.49206
 Alpha  occ. eigenvalues --   -0.48057  -0.47009  -0.46458  -0.46103  -0.45781
 Alpha  occ. eigenvalues --   -0.45204  -0.44544  -0.44483  -0.43712  -0.43279
 Alpha  occ. eigenvalues --   -0.42854  -0.42664  -0.41974  -0.41602  -0.41310
 Alpha  occ. eigenvalues --   -0.40714  -0.40567  -0.40432  -0.39932  -0.39200
 Alpha  occ. eigenvalues --   -0.38972  -0.38348  -0.38063  -0.37699  -0.37516
 Alpha  occ. eigenvalues --   -0.37464  -0.37308  -0.37122  -0.36898  -0.36594
 Alpha  occ. eigenvalues --   -0.36400  -0.35604  -0.35162  -0.34875  -0.34130
 Alpha  occ. eigenvalues --   -0.33593  -0.33447  -0.33328  -0.32710  -0.31958
 Alpha  occ. eigenvalues --   -0.31390  -0.31144  -0.30837  -0.28090  -0.26668
 Alpha  occ. eigenvalues --   -0.26321  -0.24508  -0.24063  -0.23374  -0.22544
 Alpha virt. eigenvalues --   -0.04671  -0.00759   0.00281   0.02240   0.05520
 Alpha virt. eigenvalues --    0.07174   0.08803   0.08879   0.09344   0.10293
 Alpha virt. eigenvalues --    0.10662   0.10808   0.11247   0.11874   0.12313

 Mulliken atomic charges:
              1
     1  C   -0.187854
     2  C    0.193965
     3  C   -0.188370
     4  C    0.325485
     5  C   -0.051790
     6  C   -0.334242
     7  C    0.199320
     8  C    0.409040
     9  C   -0.096666
    10  C    0.421028
    11  C    0.423149
    12  O   -0.453593
    13  C   -0.174580
    14  C   -0.265905
    15  C   -0.444203
    16  O   -0.512539
    17  C   -0.164928
    18  C    0.302751
    19  O   -0.519380
    20  C   -0.325077
    21  O   -0.657077
    22  C   -0.325426
    23  C    0.096891
    24  O   -0.591817
    25  C    0.181586
    26  C   -0.507899
    27  C   -0.393139
    28  C   -0.469374
    29  C   -0.457343
    30  H    0.143070
    31  H    0.163779
    32  C   -0.519961
    33  H    0.122729
    34  H    0.184711
    35  H    0.145728
    36  H    0.180913
    37  H    0.136664
    38  H    0.141589
    39  H    0.152070
    40  H    0.131488
    41  H    0.157848
    42  H    0.173615
    43  H    0.150983
    44  H    0.413588
    45  H    0.167892
    46  H    0.169076
    47  H    0.138791
    48  H    0.156592
    49  H    0.170879
    50  H    0.154462
    51  H    0.152437
    52  H    0.142427
    53  H    0.158662
    54  H    0.143017
    55  H    0.191731
    56  H    0.166293
    57  H    0.147949
    58  H    0.168076
    59  H    0.158068
    60  H    0.159725
    61  H    0.149701
    62  C   -0.454452
    63  H    0.148054
    64  H    0.139021
    65  H    0.160769
 Sum of Mulliken atomic charges =   0.00000

 Dipole moment (field-independent basis, Debye):
    X=             -4.8891    Y=              1.6545    Z=             -2.3677  Tot=              5.6786
 Quadrupole moment (field-independent basis, Debye-Ang):
   XX=           -187.7613   YY=           -174.6722   ZZ=           -183.9074
   XY=             -1.0387   XZ=             -4.8131   YZ=             -0.0536

 Normal termination of Gaussian 09 at Wed Mar 24 17:59:35 2021.
