 Gaussian 09, Revision B.01,
 Gaussian 09:  EM64L-G09RevB.01 12-Aug-2010

 ---------------------------------------
 # opt rb3lyp/6-31g(d) geom=connectivity
 ---------------------------------------

 -------------------
 Title Card Required
 -------------------
 Symbolic Z-matrix:
 Charge =  0 Multiplicity = 1

 SCF Done:  E(RB3LYP) =  -1387.30621049     A.U. after   16 cycles
 SCF Done:  E(RB3LYP) =  -1387.31886360     A.U. after   13 cycles
 SCF Done:  E(RB3LYP) =  -1387.32087558     A.U. after   13 cycles
 SCF Done:  E(RB3LYP) =  -1387.31941815     A.U. after   13 cycles
 SCF Done:  E(RB3LYP) =  -1387.32168846     A.U. after   13 cycles
 SCF Done:  E(RB3LYP) =  -1387.32168389     A.U. after   12 cycles
 SCF Done:  E(RB3LYP) =  -1387.32176522     A.U. after   12 cycles
 SCF Done:  E(RB3LYP) =  -1387.32185310     A.U. after   12 cycles
 SCF Done:  E(RB3LYP) =  -1387.32186218     A.U. after   10 cycles
 SCF Done:  E(RB3LYP) =  -1387.32186626     A.U. after   10 cycles
 SCF Done:  E(RB3LYP) =  -1387.32186797     A.U. after    8 cycles
 SCF Done:  E(RB3LYP) =  -1387.32186958     A.U. after   10 cycles
 SCF Done:  E(RB3LYP) =  -1387.32187090     A.U. after    8 cycles
 SCF Done:  E(RB3LYP) =  -1387.32187231     A.U. after   10 cycles
 SCF Done:  E(RB3LYP) =  -1387.32187368     A.U. after    9 cycles
 SCF Done:  E(RB3LYP) =  -1387.32187414     A.U. after    7 cycles
 SCF Done:  E(RB3LYP) =  -1387.32187421     A.U. after    6 cycles
 Optimization completed.
    -- Stationary point found.

                         Standard orientation:
 ---------------------------------------------------------------------
 Center     Atomic      Atomic             Coordinates (Angstroms)
 Number     Number       Type             X           Y           Z
 ---------------------------------------------------------------------
      1          6           0       -0.415944   -0.962342    3.104976
      2          6           0       -0.580800    0.364623    3.046894
      3          6           0       -1.244301    1.021870    1.853694
      4          6           0       -1.405363    0.124199    0.586968
      5          6           0       -0.823395   -1.311576    0.608643
      6          6           0       -0.867009   -1.916087    2.033054
      7          6           0       -0.837435    0.981049   -0.573448
      8          6           0        0.657125    0.803578   -0.769393
      9          6           0        1.341425   -0.351630   -0.537127
     10          6           0        0.616835   -1.484245    0.053199
     11          6           0        2.809366   -0.447903   -0.868241
     12          8           0        3.242370    0.087450   -1.875927
     13          6           0        3.759507   -1.107148    0.137623
     14          6           0        4.908868   -1.843249   -0.572146
     15          6           0        4.291313    0.013568    1.058674
     16          8           0        1.117611   -2.603689    0.128505
     17          6           0       -0.853111    2.458974   -0.127562
     18          6           0        0.263877    3.087226   -0.993946
     19          8           0        1.218288    1.953710   -1.141164
     20          6           0       -0.547993    2.331446    1.379366
     21          8           0       -1.459268    0.696976   -1.811500
     22          6           0       -1.804862   -2.065850   -0.323765
     23          6           0       -3.152053   -1.399189   -0.007851
     24          8           0       -2.823929   -0.038750    0.332815
     25          6           0       -4.184760   -1.459150   -1.113913
     26          6           0       -4.485613   -2.842476   -1.635962
     27          6           0       -4.817583   -0.368353   -1.558576
     28          6           0       -0.210642    3.482191   -2.394404
     29          6           0        1.055669    4.223788   -0.352877
     30          1           0       -1.824107    2.929312   -0.310086
     31          1           0       -2.273500    1.280115    2.140611
     32          6           0       -0.193450    1.265671    4.193607
     33          1           0        0.029161   -1.401285    3.996978
     34          1           0       -1.891665   -2.248204    2.258857
     35          1           0       -0.249640   -2.819113    2.025153
     36          1           0        3.197001   -1.820318    0.744705
     37          1           0        5.438907   -1.129024   -1.213272
     38          1           0        5.622807   -2.176742    0.193344
     39          1           0        4.961303   -0.406424    1.817557
     40          1           0        3.476250    0.529370    1.580676
     41          1           0        4.849431    0.757208    0.479003
     42          1           0        0.532556    2.239043    1.532513
     43          1           0       -0.877456    3.203789    1.950936
     44          1           0       -2.400520    0.542218   -1.599322
     45          1           0       -1.539021   -1.901185   -1.372446
     46          1           0       -1.799580   -3.141192   -0.128627
     47          1           0       -3.593638   -1.870684    0.885750
     48          1           0       -4.782169   -3.517425   -0.821318
     49          1           0       -5.297997   -2.819972   -2.367673
     50          1           0       -3.607739   -3.293755   -2.115327
     51          1           0       -5.564974   -0.433712   -2.344697
     52          1           0       -4.629455    0.613792   -1.137140
     53          1           0        0.652068    3.733016   -3.019631
     54          1           0       -0.858842    4.364080   -2.333184
     55          1           0       -0.765907    2.668524   -2.863770
     56          1           0        1.497561    3.932712    0.602895
     57          1           0        1.865318    4.536641   -1.019470
     58          1           0        0.399286    5.084905   -0.185304
     59          1           0        0.215021    0.687916    5.028385
     60          1           0        0.558182    2.010217    3.901499
     61          1           0       -1.062317    1.827620    4.565131
     62          6           0        4.448908   -3.044407   -1.405489
     63          1           0        5.306480   -3.565425   -1.846948
     64          1           0        3.890074   -3.762829   -0.795268
     65          1           0        3.795064   -2.726217   -2.224335
 ---------------------------------------------------------------------

 The electronic state is 1-A.
 Alpha  occ. eigenvalues --  -19.19751 -19.16735 -19.15831 -19.12727 -19.12022
 Alpha  occ. eigenvalues --  -10.27553 -10.27201 -10.26702 -10.25973 -10.25879
 Alpha  occ. eigenvalues --  -10.25847 -10.25340 -10.21378 -10.20930 -10.20711
 Alpha  occ. eigenvalues --  -10.20546 -10.20121 -10.19724 -10.19722 -10.19370
 Alpha  occ. eigenvalues --  -10.19142 -10.19090 -10.19084 -10.18838 -10.18450
 Alpha  occ. eigenvalues --  -10.18446 -10.18019 -10.17427 -10.17093 -10.16286
 Alpha  occ. eigenvalues --  -10.15156  -1.09439  -1.06114  -1.02944  -1.02651
 Alpha  occ. eigenvalues --   -1.01914  -0.86892  -0.83705  -0.82495  -0.81470
 Alpha  occ. eigenvalues --   -0.80372  -0.78927  -0.76705  -0.74396  -0.73323
 Alpha  occ. eigenvalues --   -0.71942  -0.71149  -0.69973  -0.69606  -0.68152
 Alpha  occ. eigenvalues --   -0.65316  -0.63620  -0.63309  -0.61577  -0.60774
 Alpha  occ. eigenvalues --   -0.59495  -0.58661  -0.56971  -0.54565  -0.53904
 Alpha  occ. eigenvalues --   -0.52807  -0.51953  -0.50922  -0.50430  -0.49279
 Alpha  occ. eigenvalues --   -0.48192  -0.47706  -0.46935  -0.46426  -0.45891
 Alpha  occ. eigenvalues --   -0.45012  -0.44553  -0.43837  -0.43501  -0.43227
 Alpha  occ. eigenvalues --   -0.42500  -0.42221  -0.41902  -0.41637  -0.41317
 Alpha  occ. eigenvalues --   -0.40880  -0.40719  -0.40670  -0.40034  -0.39632
 Alpha  occ. eigenvalues --   -0.39301  -0.39122  -0.38770  -0.38236  -0.37755
 Alpha  occ. eigenvalues --   -0.37620  -0.37348  -0.37171  -0.37014  -0.36644
 Alpha  occ. eigenvalues --   -0.36148  -0.35532  -0.34929  -0.34756  -0.34226
 Alpha  occ. eigenvalues --   -0.33949  -0.33719  -0.32869  -0.32085  -0.32076
 Alpha  occ. eigenvalues --   -0.31443  -0.30973  -0.30543  -0.28317  -0.26547
 Alpha  occ. eigenvalues --   -0.25979  -0.24689  -0.24318  -0.23493  -0.22380
 Alpha virt. eigenvalues --   -0.05029  -0.01378   0.00871   0.01843   0.06093
 Alpha virt. eigenvalues --    0.07427   0.07856   0.08512   0.09269   0.09856
 Alpha virt. eigenvalues --    0.10515   0.10992   0.11487   0.11967   0.12743

 Mulliken atomic charges:
              1
     1  C   -0.191453
     2  C    0.190558
     3  C   -0.188797
     4  C    0.319504
     5  C   -0.050051
     6  C   -0.332675
     7  C    0.197179
     8  C    0.406492
     9  C   -0.085795
    10  C    0.417785
    11  C    0.424368
    12  O   -0.463781
    13  C   -0.153763
    14  C   -0.246480
    15  C   -0.455739
    16  O   -0.514569
    17  C   -0.163454
    18  C    0.299897
    19  O   -0.504301
    20  C   -0.323365
    21  O   -0.657370
    22  C   -0.324514
    23  C    0.104710
    24  O   -0.589944
    25  C    0.187032
    26  C   -0.519735
    27  C   -0.407954
    28  C   -0.467802
    29  C   -0.459861
    30  H    0.144913
    31  H    0.167991
    32  C   -0.519443
    33  H    0.122960
    34  H    0.147218
    35  H    0.181518
    36  H    0.157145
    37  H    0.149368
    38  H    0.120231
    39  H    0.147108
    40  H    0.137341
    41  H    0.158647
    42  H    0.162424
    43  H    0.152108
    44  H    0.416527
    45  H    0.175780
    46  H    0.166395
    47  H    0.144648
    48  H    0.158475
    49  H    0.162107
    50  H    0.171536
    51  H    0.140132
    52  H    0.152807
    53  H    0.163847
    54  H    0.141447
    55  H    0.194729
    56  H    0.158967
    57  H    0.169160
    58  H    0.150762
    59  H    0.158249
    60  H    0.156123
    61  H    0.152633
    62  C   -0.451005
    63  H    0.132534
    64  H    0.151709
    65  H    0.156785
 Sum of Mulliken atomic charges =   0.00000

 Dipole moment (field-independent basis, Debye):
    X=             -4.5961    Y=              2.5853    Z=              3.2087  Tot=              6.1728
 Quadrupole moment (field-independent basis, Debye-Ang):
   XX=           -186.8561   YY=           -173.4908   ZZ=           -186.6570
   XY=              6.1377   XZ=             11.0894   YZ=              1.1256

 Normal termination of Gaussian 09 at Wed Mar 24 14:56:44 2021.
