 Gaussian 09, Revision B.01,
 Gaussian 09:  EM64L-G09RevB.01 12-Aug-2010

 ---------------------------------------
 # opt rb3lyp/6-31g(d) geom=connectivity
 ---------------------------------------

 -------------------
 Title Card Required
 -------------------
 Symbolic Z-matrix:
 Charge =  0 Multiplicity = 1

 SCF Done:  E(RB3LYP) =  -1387.30310935     A.U. after   16 cycles
 SCF Done:  E(RB3LYP) =  -1387.31622777     A.U. after   13 cycles
 SCF Done:  E(RB3LYP) =  -1387.31819458     A.U. after   13 cycles
 SCF Done:  E(RB3LYP) =  -1387.31769390     A.U. after   13 cycles
 SCF Done:  E(RB3LYP) =  -1387.31899095     A.U. after   12 cycles
 SCF Done:  E(RB3LYP) =  -1387.31905971     A.U. after   12 cycles
 SCF Done:  E(RB3LYP) =  -1387.31912422     A.U. after   12 cycles
 SCF Done:  E(RB3LYP) =  -1387.31917566     A.U. after   11 cycles
 SCF Done:  E(RB3LYP) =  -1387.31920200     A.U. after   11 cycles
 SCF Done:  E(RB3LYP) =  -1387.31921520     A.U. after   11 cycles
 SCF Done:  E(RB3LYP) =  -1387.31921941     A.U. after   10 cycles
 SCF Done:  E(RB3LYP) =  -1387.31922139     A.U. after   10 cycles
 SCF Done:  E(RB3LYP) =  -1387.31922174     A.U. after    7 cycles
 SCF Done:  E(RB3LYP) =  -1387.31922171     A.U. after    6 cycles
 SCF Done:  E(RB3LYP) =  -1387.31922169     A.U. after    6 cycles
 Optimization completed.
    -- Stationary point found.

                         Standard orientation:
 ---------------------------------------------------------------------
 Center     Atomic      Atomic             Coordinates (Angstroms)
 Number     Number       Type             X           Y           Z
 ---------------------------------------------------------------------
      1          6           0        1.918633    1.222375   -2.794622
      2          6           0        2.380033    2.045107   -1.845417
      3          6           0        1.948222    1.863523   -0.409140
      4          6           0        1.579386    0.406315    0.016602
      5          6           0        1.267138   -0.606296   -1.128050
      6          6           0        0.985225    0.078772   -2.502292
      7          6           0        0.406726    0.594980    1.048175
      8          6           0       -0.960415    0.283306    0.466430
      9          6           0       -1.198003   -0.756199   -0.368084
     10          6           0       -0.001995   -1.470665   -0.879002
     11          6           0       -2.540709   -1.132072   -0.924874
     12          8           0       -2.647637   -1.394061   -2.112387
     13          6           0       -3.724312   -1.256102    0.036392
     14          6           0       -5.065441   -0.987706   -0.663868
     15          6           0       -3.669071   -2.678594    0.639693
     16          8           0       -0.038572   -2.637752   -1.233436
     17          6           0        0.252599    2.107991    1.324872
     18          6           0       -1.242477    2.252779    1.684992
     19          8           0       -1.877043    1.167705    0.889409
     20          6           0        0.730583    2.732969    0.001348
     21          8           0        0.581025   -0.212152    2.191795
     22          6           0        2.540322   -1.469857   -1.209333
     23          6           0        3.222949   -1.365871    0.156849
     24          8           0        2.696671   -0.135007    0.745684
     25          6           0        3.076471   -2.496976    1.162999
     26          6           0        3.943403   -2.336880    2.391495
     27          6           0        2.275662   -3.553520    0.996379
     28          6           0       -1.514505    1.959437    3.162306
     29          6           0       -1.917236    3.547062    1.242780
     30          1           0        0.891552    2.418398    2.157112
     31          1           0        2.781335    2.139104    0.251082
     32          6           0        3.302691    3.199084   -2.139900
     33          1           0        2.207981    1.379552   -3.832786
     34          1           0        1.063168   -0.691705   -3.277562
     35          1           0       -0.058881    0.420450   -2.540903
     36          1           0       -3.587181   -0.536129    0.851113
     37          1           0       -5.154739   -1.666080   -1.520049
     38          1           0       -5.873733   -1.245201    0.033887
     39          1           0       -3.812743   -3.432873   -0.141778
     40          1           0       -4.460147   -2.801604    1.387986
     41          1           0       -2.706870   -2.874012    1.125214
     42          1           0       -0.046383    2.659968   -0.769174
     43          1           0        0.991162    3.791609    0.096680
     44          1           0        1.527979   -0.462238    2.166530
     45          1           0        2.289479   -2.490107   -1.501606
     46          1           0        3.208585   -1.054117   -1.968953
     47          1           0        4.297504   -1.179573    0.028498
     48          1           0        3.761863   -1.377200    2.892339
     49          1           0        5.009126   -2.346465    2.122154
     50          1           0        3.768036   -3.138362    3.114802
     51          1           0        2.218259   -4.327239    1.758684
     52          1           0        1.641816   -3.686417    0.126678
     53          1           0       -1.032589    1.027877    3.467697
     54          1           0       -1.124901    2.773451    3.784280
     55          1           0       -2.592736    1.881311    3.336264
     56          1           0       -1.807643    3.715686    0.168725
     57          1           0       -1.479757    4.398179    1.776028
     58          1           0       -2.986404    3.512870    1.475654
     59          1           0        3.531528    3.269482   -3.208020
     60          1           0        2.863188    4.156178   -1.826219
     61          1           0        4.250612    3.098034   -1.593172
     62          6           0       -5.237080    0.460261   -1.135621
     63          1           0       -6.222654    0.611129   -1.590807
     64          1           0       -4.481997    0.720836   -1.884683
     65          1           0       -5.142170    1.166004   -0.300875
 ---------------------------------------------------------------------

 The electronic state is 1-A.
 Alpha  occ. eigenvalues --  -19.19852 -19.16690 -19.14916 -19.13096 -19.12445
 Alpha  occ. eigenvalues --  -10.27075 -10.26955 -10.26829 -10.26311 -10.26079
 Alpha  occ. eigenvalues --  -10.25750 -10.24671 -10.21303 -10.20496 -10.20294
 Alpha  occ. eigenvalues --  -10.20185 -10.19731 -10.19575 -10.19514 -10.19299
 Alpha  occ. eigenvalues --  -10.18943 -10.18854 -10.18619 -10.18558 -10.18425
 Alpha  occ. eigenvalues --  -10.18406 -10.18095 -10.17487 -10.17001 -10.16837
 Alpha  occ. eigenvalues --  -10.16161  -1.09168  -1.05726  -1.03395  -1.02085
 Alpha  occ. eigenvalues --   -1.01944  -0.86840  -0.83841  -0.81952  -0.81134
 Alpha  occ. eigenvalues --   -0.79885  -0.79357  -0.76818  -0.74006  -0.73026
 Alpha  occ. eigenvalues --   -0.72223  -0.71528  -0.70233  -0.68695  -0.68020
 Alpha  occ. eigenvalues --   -0.64813  -0.64083  -0.63126  -0.61864  -0.60728
 Alpha  occ. eigenvalues --   -0.59215  -0.58745  -0.56517  -0.54497  -0.53216
 Alpha  occ. eigenvalues --   -0.52868  -0.51739  -0.50644  -0.49903  -0.48983
 Alpha  occ. eigenvalues --   -0.48297  -0.47545  -0.47017  -0.46423  -0.46029
 Alpha  occ. eigenvalues --   -0.44868  -0.44234  -0.44024  -0.43188  -0.42733
 Alpha  occ. eigenvalues --   -0.42467  -0.42191  -0.41934  -0.41686  -0.41186
 Alpha  occ. eigenvalues --   -0.40900  -0.40710  -0.40400  -0.40072  -0.39926
 Alpha  occ. eigenvalues --   -0.39268  -0.39027  -0.38716  -0.38452  -0.37992
 Alpha  occ. eigenvalues --   -0.37600  -0.37489  -0.37167  -0.36577  -0.35977
 Alpha  occ. eigenvalues --   -0.35735  -0.35324  -0.35152  -0.34588  -0.34560
 Alpha  occ. eigenvalues --   -0.33611  -0.33323  -0.32886  -0.32697  -0.32185
 Alpha  occ. eigenvalues --   -0.31632  -0.31363  -0.30885  -0.27420  -0.27190
 Alpha  occ. eigenvalues --   -0.25303  -0.24578  -0.24272  -0.23394  -0.22668
 Alpha virt. eigenvalues --   -0.04319  -0.01736   0.00978   0.01538   0.05442
 Alpha virt. eigenvalues --    0.07201   0.08388   0.08677   0.09477   0.10341
 Alpha virt. eigenvalues --    0.10655   0.11040   0.11176   0.11677   0.12764

 Mulliken atomic charges:
              1
     1  C   -0.197218
     2  C    0.204211
     3  C   -0.200372
     4  C    0.322907
     5  C   -0.050247
     6  C   -0.325766
     7  C    0.203161
     8  C    0.401006
     9  C   -0.096059
    10  C    0.420735
    11  C    0.429057
    12  O   -0.464719
    13  C   -0.164391
    14  C   -0.243579
    15  C   -0.455929
    16  O   -0.482267
    17  C   -0.156005
    18  C    0.298619
    19  O   -0.533837
    20  C   -0.308400
    21  O   -0.671033
    22  C   -0.332940
    23  C    0.094234
    24  O   -0.589842
    25  C    0.181200
    26  C   -0.514056
    27  C   -0.405092
    28  C   -0.467148
    29  C   -0.461371
    30  H    0.145895
    31  H    0.149921
    32  C   -0.520871
    33  H    0.125488
    34  H    0.168341
    35  H    0.173572
    36  H    0.147077
    37  H    0.154509
    38  H    0.122576
    39  H    0.162359
    40  H    0.146012
    41  H    0.160150
    42  H    0.160241
    43  H    0.150698
    44  H    0.430245
    45  H    0.189696
    46  H    0.151342
    47  H    0.135382
    48  H    0.159777
    49  H    0.154187
    50  H    0.157280
    51  H    0.136486
    52  H    0.185314
    53  H    0.195302
    54  H    0.145202
    55  H    0.155408
    56  H    0.162243
    57  H    0.151849
    58  H    0.163210
    59  H    0.157638
    60  H    0.153985
    61  H    0.156553
    62  C   -0.452300
    63  H    0.138818
    64  H    0.156838
    65  H    0.134720
 Sum of Mulliken atomic charges =   0.00000

 Dipole moment (field-independent basis, Debye):
    X=              2.9688    Y=              4.8090    Z=              2.4731  Tot=              6.1690
 Quadrupole moment (field-independent basis, Debye-Ang):
   XX=           -178.9862   YY=           -180.8016   ZZ=           -186.4858
   XY=             -3.7667   XZ=             -8.7879   YZ=             -4.1373

 Normal termination of Gaussian 09 at Wed Mar 24 14:46:14 2021.
