 Gaussian 09, Revision B.01,
 Gaussian 09:  EM64L-G09RevB.01 12-Aug-2010

 ---------------------------------------
 # opt rb3lyp/6-31g(d) geom=connectivity
 ---------------------------------------

 -------------------
 Title Card Required
 -------------------
 Symbolic Z-matrix:
 Charge =  0 Multiplicity = 1

 SCF Done:  E(RB3LYP) =  -1387.30125646     A.U. after   16 cycles
 SCF Done:  E(RB3LYP) =  -1387.31377824     A.U. after   13 cycles
 SCF Done:  E(RB3LYP) =  -1387.31578967     A.U. after   13 cycles
 SCF Done:  E(RB3LYP) =  -1387.31523300     A.U. after   13 cycles
 SCF Done:  E(RB3LYP) =  -1387.31684416     A.U. after   13 cycles
 SCF Done:  E(RB3LYP) =  -1387.31621961     A.U. after   13 cycles
 SCF Done:  E(RB3LYP) =  -1387.31646980     A.U. after   14 cycles
 SCF Done:  E(RB3LYP) =  -1387.31661335     A.U. after   13 cycles
 SCF Done:  E(RB3LYP) =  -1387.31668114     A.U. after   13 cycles
 SCF Done:  E(RB3LYP) =  -1387.31721384     A.U. after   13 cycles
 SCF Done:  E(RB3LYP) =  -1387.31723475     A.U. after   12 cycles
 SCF Done:  E(RB3LYP) =  -1387.31724984     A.U. after   11 cycles
 SCF Done:  E(RB3LYP) =  -1387.31725367     A.U. after    8 cycles
 SCF Done:  E(RB3LYP) =  -1387.31725536     A.U. after    9 cycles
 SCF Done:  E(RB3LYP) =  -1387.31725569     A.U. after    7 cycles
 SCF Done:  E(RB3LYP) =  -1387.31725590     A.U. after    6 cycles
 Optimization completed.
    -- Stationary point found.

                         Standard orientation:
 ---------------------------------------------------------------------
 Center     Atomic      Atomic             Coordinates (Angstroms)
 Number     Number       Type             X           Y           Z
 ---------------------------------------------------------------------
      1          6           0       -0.982377   -0.278638    3.294577
      2          6           0       -1.419019    0.914261    2.874893
      3          6           0       -1.844508    1.137399    1.439015
      4          6           0       -1.477017    0.001382    0.433348
      5          6           0       -0.610196   -1.186037    0.933221
      6          6           0       -0.879395   -1.500411    2.424714
      7          6           0       -0.848525    0.745348   -0.775692
      8          6           0        0.648015    0.926982   -0.648520
      9          6           0        1.485933    0.053771   -0.039860
     10          6           0        0.924212   -1.053599    0.730938
     11          6           0        2.978522    0.320891    0.022264
     12          8           0        3.374388    1.340647    0.557477
     13          6           0        3.978722   -0.656160   -0.612321
     14          6           0        4.848755   -1.288445    0.503709
     15          6           0        3.350779   -1.686315   -1.559800
     16          8           0        1.649965   -1.893277    1.261710
     17          6           0       -1.274045    2.227699   -0.704531
     18          6           0       -0.146876    2.945565   -1.487053
     19          8           0        1.031484    2.076431   -1.215038
     20          6           0       -1.309983    2.462246    0.819055
     21          8           0       -1.105824    0.087217   -2.002664
     22          6           0       -1.121316   -2.346084    0.037491
     23          6           0       -2.614647   -2.052363   -0.075308
     24          8           0       -2.707095   -0.597685   -0.049548
     25          6           0       -3.375671   -2.559460   -1.283556
     26          6           0       -4.826814   -2.144965   -1.335791
     27          6           0       -2.823504   -3.345591   -2.212873
     28          6           0       -0.381779    2.952644   -2.999116
     29          6           0        0.233123    4.337182   -0.988286
     30          1           0       -2.253372    2.393032   -1.164530
     31          1           0       -2.942932    1.182219    1.413755
     32          6           0       -1.575550    2.081458    3.818041
     33          1           0       -0.717051   -0.403812    4.343543
     34          1           0       -1.807359   -2.084386    2.517426
     35          1           0       -0.073851   -2.155342    2.769302
     36          1           0        4.638769    0.003322   -1.196117
     37          1           0        5.189182   -0.476034    1.156260
     38          1           0        4.214396   -1.943402    1.111079
     39          1           0        2.695478   -1.206478   -2.295404
     40          1           0        4.128197   -2.220762   -2.115231
     41          1           0        2.763367   -2.424595   -1.005646
     42          1           0       -0.297652    2.651607    1.193101
     43          1           0       -1.923064    3.323795    1.098490
     44          1           0       -2.008223   -0.274023   -1.896768
     45          1           0       -0.908369   -3.323053    0.479527
     46          1           0       -0.645165   -2.293876   -0.945497
     47          1           0       -3.135738   -2.419403    0.822947
     48          1           0       -5.321809   -2.531247   -2.231624
     49          1           0       -5.371210   -2.516849   -0.456797
     50          1           0       -4.923962   -1.053390   -1.323935
     51          1           0       -1.786288   -3.662485   -2.175250
     52          1           0       -3.407161   -3.714354   -3.052688
     53          1           0        0.520979    3.298544   -3.513114
     54          1           0       -1.199822    3.638817   -3.247127
     55          1           0       -0.638317    1.954632   -3.359081
     56          1           0        1.082153    4.720849   -1.562480
     57          1           0       -0.609758    5.024322   -1.123132
     58          1           0        0.514626    4.330417    0.066948
     59          1           0       -1.310986    1.799042    4.841611
     60          1           0       -0.943630    2.931872    3.531808
     61          1           0       -2.611998    2.448429    3.825593
     62          6           0        6.063100   -2.061772   -0.020442
     63          1           0        6.703184   -1.425224   -0.644855
     64          1           0        6.672895   -2.429087    0.813175
     65          1           0        5.771509   -2.931679   -0.619494
 ---------------------------------------------------------------------

 The electronic state is 1-A.
 Alpha  occ. eigenvalues --  -19.19393 -19.16646 -19.15745 -19.12702 -19.12543
 Alpha  occ. eigenvalues --  -10.27161 -10.27080 -10.26541 -10.26511 -10.25717
 Alpha  occ. eigenvalues --  -10.25668 -10.25195 -10.21328 -10.20834 -10.20504
 Alpha  occ. eigenvalues --  -10.20280 -10.19747 -10.19603 -10.19280 -10.19082
 Alpha  occ. eigenvalues --  -10.18936 -10.18928 -10.18746 -10.18694 -10.18389
 Alpha  occ. eigenvalues --  -10.18087 -10.18066 -10.18033 -10.16508 -10.16244
 Alpha  occ. eigenvalues --  -10.16223  -1.09038  -1.05816  -1.02995  -1.02367
 Alpha  occ. eigenvalues --   -1.02291  -0.86614  -0.83533  -0.82359  -0.81321
 Alpha  occ. eigenvalues --   -0.80183  -0.79106  -0.76577  -0.74246  -0.73074
 Alpha  occ. eigenvalues --   -0.71752  -0.70992  -0.69805  -0.69511  -0.67757
 Alpha  occ. eigenvalues --   -0.64967  -0.64195  -0.63402  -0.61860  -0.60479
 Alpha  occ. eigenvalues --   -0.59271  -0.57974  -0.56905  -0.55114  -0.53573
 Alpha  occ. eigenvalues --   -0.52935  -0.52183  -0.50573  -0.50342  -0.49150
 Alpha  occ. eigenvalues --   -0.48039  -0.46876  -0.46475  -0.45860  -0.45441
 Alpha  occ. eigenvalues --   -0.45152  -0.44452  -0.44329  -0.43399  -0.43202
 Alpha  occ. eigenvalues --   -0.42863  -0.42399  -0.41857  -0.41556  -0.41285
 Alpha  occ. eigenvalues --   -0.41037  -0.40621  -0.40419  -0.39996  -0.39028
 Alpha  occ. eigenvalues --   -0.38928  -0.38363  -0.38137  -0.37957  -0.37862
 Alpha  occ. eigenvalues --   -0.37502  -0.37404  -0.37272  -0.36991  -0.36675
 Alpha  occ. eigenvalues --   -0.36376  -0.35889  -0.34937  -0.34320  -0.34310
 Alpha  occ. eigenvalues --   -0.33553  -0.33456  -0.33363  -0.32664  -0.31929
 Alpha  occ. eigenvalues --   -0.31099  -0.31033  -0.30315  -0.28068  -0.26683
 Alpha  occ. eigenvalues --   -0.26275  -0.24728  -0.24015  -0.23385  -0.22552
 Alpha virt. eigenvalues --   -0.04577  -0.01023   0.00288   0.02303   0.05112
 Alpha virt. eigenvalues --    0.07287   0.08848   0.08931   0.09367   0.10270
 Alpha virt. eigenvalues --    0.10819   0.10989   0.11261   0.12239   0.12247

 Mulliken atomic charges:
              1
     1  C   -0.187013
     2  C    0.194533
     3  C   -0.188478
     4  C    0.325116
     5  C   -0.054889
     6  C   -0.333789
     7  C    0.200249
     8  C    0.401223
     9  C   -0.099225
    10  C    0.432815
    11  C    0.411337
    12  O   -0.447281
    13  C   -0.130530
    14  C   -0.263734
    15  C   -0.477841
    16  O   -0.520573
    17  C   -0.165002
    18  C    0.303419
    19  O   -0.519221
    20  C   -0.324966
    21  O   -0.658140
    22  C   -0.327203
    23  C    0.097530
    24  O   -0.591955
    25  C    0.180792
    26  C   -0.508082
    27  C   -0.392459
    28  C   -0.468532
    29  C   -0.457310
    30  H    0.142596
    31  H    0.163483
    32  C   -0.520009
    33  H    0.122614
    34  H    0.145474
    35  H    0.184856
    36  H    0.147575
    37  H    0.150180
    38  H    0.167121
    39  H    0.145953
    40  H    0.145611
    41  H    0.164748
    42  H    0.174424
    43  H    0.150789
    44  H    0.414025
    45  H    0.167083
    46  H    0.171113
    47  H    0.138889
    48  H    0.154494
    49  H    0.156737
    50  H    0.170990
    51  H    0.152671
    52  H    0.142453
    53  H    0.157541
    54  H    0.142755
    55  H    0.191262
    56  H    0.165428
    57  H    0.147903
    58  H    0.168073
    59  H    0.158005
    60  H    0.159931
    61  H    0.149435
    62  C   -0.450372
    63  H    0.138341
    64  H    0.142983
    65  H    0.144054
 Sum of Mulliken atomic charges =   0.00000

 Dipole moment (field-independent basis, Debye):
    X=             -5.3431    Y=              0.8465    Z=             -1.1615  Tot=              5.5331
 Quadrupole moment (field-independent basis, Debye-Ang):
   XX=           -187.2023   YY=           -175.2610   ZZ=           -182.1652
   XY=             -3.1094   XZ=             -3.9512   YZ=              0.0623

 Normal termination of Gaussian 09 at Wed Mar 24 16:23:40 2021.
