 Gaussian 09, Revision B.01,
 Gaussian 09:  EM64L-G09RevB.01 12-Aug-2010

 ---------------------------------------
 # opt rb3lyp/6-31g(d) geom=connectivity
 ---------------------------------------

 -------------------
 Title Card Required
 -------------------
 Symbolic Z-matrix:
 Charge =  0 Multiplicity = 1

 SCF Done:  E(RB3LYP) =  -1387.30158180     A.U. after   16 cycles
 SCF Done:  E(RB3LYP) =  -1387.31433035     A.U. after   13 cycles
 SCF Done:  E(RB3LYP) =  -1387.31703908     A.U. after   13 cycles
 SCF Done:  E(RB3LYP) =  -1387.31703100     A.U. after   13 cycles
 SCF Done:  E(RB3LYP) =  -1387.31858858     A.U. after   13 cycles
 SCF Done:  E(RB3LYP) =  -1387.31872195     A.U. after   13 cycles
 SCF Done:  E(RB3LYP) =  -1387.31884685     A.U. after   12 cycles
 SCF Done:  E(RB3LYP) =  -1387.31895646     A.U. after   13 cycles
 SCF Done:  E(RB3LYP) =  -1387.31901669     A.U. after   10 cycles
 SCF Done:  E(RB3LYP) =  -1387.31902683     A.U. after   10 cycles
 SCF Done:  E(RB3LYP) =  -1387.31903195     A.U. after   10 cycles
 SCF Done:  E(RB3LYP) =  -1387.31903327     A.U. after   12 cycles
 SCF Done:  E(RB3LYP) =  -1387.31903011     A.U. after   12 cycles
 SCF Done:  E(RB3LYP) =  -1387.31903913     A.U. after   10 cycles
 SCF Done:  E(RB3LYP) =  -1387.31904056     A.U. after    8 cycles
 SCF Done:  E(RB3LYP) =  -1387.31903917     A.U. after   10 cycles
 SCF Done:  E(RB3LYP) =  -1387.31903988     A.U. after    8 cycles
 SCF Done:  E(RB3LYP) =  -1387.31903946     A.U. after    7 cycles
 SCF Done:  E(RB3LYP) =  -1387.31903924     A.U. after    6 cycles
 Optimization completed.
    -- Stationary point found.

                         Standard orientation:
 ---------------------------------------------------------------------
 Center     Atomic      Atomic             Coordinates (Angstroms)
 Number     Number       Type             X           Y           Z
 ---------------------------------------------------------------------
      1          6           0       -1.635727    0.116230    3.137652
      2          6           0       -1.895358    1.290623    2.553560
      3          6           0       -2.005734    1.420803    1.049864
      4          6           0       -1.563290    0.178699    0.209771
      5          6           0       -0.951951   -1.050046    0.948070
      6          6           0       -1.466786   -1.183804    2.405843
      7          6           0       -0.619100    0.767608   -0.873813
      8          6           0        0.835316    0.806461   -0.454114
      9          6           0        1.438571   -0.147899    0.302620
     10          6           0        0.601964   -1.142883    0.979231
     11          6           0        2.925051   -0.117158    0.559353
     12          8           0        3.479634    0.931527    0.842858
     13          6           0        3.733913   -1.405287    0.376658
     14          6           0        4.676768   -1.193670   -0.834469
     15          6           0        4.485952   -1.728837    1.677965
     16          8           0        1.098243   -2.054788    1.637587
     17          6           0       -0.889590    2.282678   -0.981062
     18          6           0        0.446947    2.829717   -1.536652
     19          8           0        1.439674    1.881300   -0.959630
     20          6           0       -1.220601    2.639185    0.479807
     21          8           0       -0.694749    0.044288   -2.088247
     22          6           0       -1.497259   -2.232560    0.103161
     23          6           0       -2.903638   -1.746664   -0.259107
     24          8           0       -2.721514   -0.331903   -0.512174
     25          6           0       -3.573829   -2.434892   -1.428826
     26          6           0       -3.053259   -2.184281   -2.822676
     27          6           0       -4.593230   -3.268052   -1.196181
     28          6           0        0.543254    2.736770   -3.061176
     29          6           0        0.861782    4.215821   -1.050282
     30          1           0       -1.726404    2.498097   -1.652672
     31          1           0       -3.065728    1.562334    0.794874
     32          6           0       -2.149119    2.540000    3.361554
     33          1           0       -1.591754    0.067166    4.225128
     34          1           0       -2.431986   -1.712361    2.408949
     35          1           0       -0.770665   -1.841929    2.933995
     36          1           0        3.047712   -2.227154    0.152199
     37          1           0        5.372025   -0.379990   -0.595250
     38          1           0        4.080610   -0.845753   -1.689942
     39          1           0        5.099391   -2.628609    1.566146
     40          1           0        3.774657   -1.907088    2.490174
     41          1           0        5.136177   -0.893549    1.958626
     42          1           0       -1.785026    3.571567    0.569739
     43          1           0       -0.295042    2.766254    1.052226
     44          1           0       -1.638394   -0.202605   -2.142783
     45          1           0       -0.894172   -2.372706   -0.799143
     46          1           0       -1.501733   -3.169474    0.665867
     47          1           0       -3.562918   -1.852239    0.612516
     48          1           0       -3.275967   -1.158550   -3.146190
     49          1           0       -1.967846   -2.322311   -2.895369
     50          1           0       -3.526044   -2.859531   -3.541593
     51          1           0       -4.988452   -3.426105   -0.195644
     52          1           0       -5.066272   -3.829670   -1.997385
     53          1           0        0.259884    1.742799   -3.411978
     54          1           0        1.567604    2.951752   -3.382198
     55          1           0       -0.121607    3.476247   -3.522355
     56          1           0        0.144998    4.964685   -1.405421
     57          1           0        1.848766    4.470545   -1.448267
     58          1           0        0.913639    4.269740    0.039387
     59          1           0       -2.115557    2.327987    4.434579
     60          1           0       -1.412342    3.326327    3.152934
     61          1           0       -3.136413    2.965918    3.131951
     62          6           0        5.447949   -2.450277   -1.251603
     63          1           0        6.128768   -2.794175   -0.465698
     64          1           0        4.764716   -3.276289   -1.485592
     65          1           0        6.051077   -2.254438   -2.145834
 ---------------------------------------------------------------------

 The electronic state is 1-A.
 Alpha  occ. eigenvalues --  -19.19725 -19.16822 -19.15935 -19.12652 -19.12180
 Alpha  occ. eigenvalues --  -10.27471 -10.27202 -10.26708 -10.26058 -10.25929
 Alpha  occ. eigenvalues --  -10.25903 -10.25100 -10.21477 -10.20834 -10.20638
 Alpha  occ. eigenvalues --  -10.20393 -10.19896 -10.19665 -10.19423 -10.19387
 Alpha  occ. eigenvalues --  -10.19165 -10.18882 -10.18810 -10.18810 -10.18530
 Alpha  occ. eigenvalues --  -10.18241 -10.18179 -10.17451 -10.17107 -10.16484
 Alpha  occ. eigenvalues --  -10.15663  -1.09428  -1.06039  -1.02931  -1.02636
 Alpha  occ. eigenvalues --   -1.02027  -0.86695  -0.83618  -0.82482  -0.81378
 Alpha  occ. eigenvalues --   -0.80266  -0.78971  -0.76734  -0.74290  -0.73192
 Alpha  occ. eigenvalues --   -0.71742  -0.71081  -0.70120  -0.69938  -0.67817
 Alpha  occ. eigenvalues --   -0.65335  -0.64098  -0.63134  -0.61805  -0.60619
 Alpha  occ. eigenvalues --   -0.59350  -0.58142  -0.56986  -0.54616  -0.53849
 Alpha  occ. eigenvalues --   -0.52705  -0.52054  -0.50662  -0.50502  -0.49467
 Alpha  occ. eigenvalues --   -0.47850  -0.47356  -0.46865  -0.46236  -0.45629
 Alpha  occ. eigenvalues --   -0.45068  -0.44350  -0.44224  -0.43835  -0.43409
 Alpha  occ. eigenvalues --   -0.43279  -0.42157  -0.41723  -0.41444  -0.41357
 Alpha  occ. eigenvalues --   -0.40886  -0.40758  -0.40498  -0.40109  -0.39476
 Alpha  occ. eigenvalues --   -0.39200  -0.38816  -0.38379  -0.38135  -0.37884
 Alpha  occ. eigenvalues --   -0.37509  -0.37278  -0.36964  -0.36821  -0.36757
 Alpha  occ. eigenvalues --   -0.36451  -0.35123  -0.34975  -0.34461  -0.34273
 Alpha  occ. eigenvalues --   -0.33856  -0.33776  -0.33440  -0.32817  -0.32122
 Alpha  occ. eigenvalues --   -0.31305  -0.31007  -0.30537  -0.28386  -0.27161
 Alpha  occ. eigenvalues --   -0.25765  -0.24622  -0.24068  -0.23426  -0.22414
 Alpha virt. eigenvalues --   -0.04873  -0.01106   0.00612   0.02200   0.05686
 Alpha virt. eigenvalues --    0.07243   0.08195   0.08853   0.09369   0.10064
 Alpha virt. eigenvalues --    0.10400   0.10740   0.11485   0.12209   0.12402

 Mulliken atomic charges:
              1
     1  C   -0.187211
     2  C    0.194332
     3  C   -0.190356
     4  C    0.329040
     5  C   -0.047216
     6  C   -0.339482
     7  C    0.184905
     8  C    0.402506
     9  C   -0.097591
    10  C    0.417878
    11  C    0.420104
    12  O   -0.464579
    13  C   -0.129982
    14  C   -0.254009
    15  C   -0.460154
    16  O   -0.513448
    17  C   -0.162114
    18  C    0.300711
    19  O   -0.507332
    20  C   -0.323318
    21  O   -0.671082
    22  C   -0.312104
    23  C    0.077605
    24  O   -0.597620
    25  C    0.239978
    26  C   -0.547631
    27  C   -0.403750
    28  C   -0.469141
    29  C   -0.457640
    30  H    0.143695
    31  H    0.164380
    32  C   -0.519851
    33  H    0.122213
    34  H    0.145691
    35  H    0.187129
    36  H    0.140287
    37  H    0.151470
    38  H    0.131797
    39  H    0.139973
    40  H    0.164565
    41  H    0.156728
    42  H    0.152148
    43  H    0.170864
    44  H    0.433678
    45  H    0.163913
    46  H    0.169123
    47  H    0.136895
    48  H    0.166534
    49  H    0.174924
    50  H    0.161857
    51  H    0.142296
    52  H    0.142216
    53  H    0.190305
    54  H    0.159891
    55  H    0.143686
    56  H    0.148580
    57  H    0.167876
    58  H    0.166850
    59  H    0.158036
    60  H    0.158601
    61  H    0.150454
    62  C   -0.448410
    63  H    0.147981
    64  H    0.140928
    65  H    0.141398
 Sum of Mulliken atomic charges =   0.00000

 Dipole moment (field-independent basis, Debye):
    X=             -4.9784    Y=              1.5007    Z=             -1.9937  Tot=              5.5687
 Quadrupole moment (field-independent basis, Debye-Ang):
   XX=           -190.4036   YY=           -174.7177   ZZ=           -181.0510
   XY=             -0.9621   XZ=             -4.7114   YZ=              0.3507

 Normal termination of Gaussian 09 at Wed Mar 24 15:33:39 2021.
