 Gaussian 09, Revision B.01,
 Gaussian 09:  EM64L-G09RevB.01 12-Aug-2010

 ---------------------------------------
 # opt rb3lyp/6-31g(d) geom=connectivity
 ---------------------------------------

 -------------------
 Title Card Required
 -------------------
 Symbolic Z-matrix:
 Charge =  0 Multiplicity = 1

 SCF Done:  E(RB3LYP) =  -1387.30124302     A.U. after   16 cycles
 SCF Done:  E(RB3LYP) =  -1387.31335662     A.U. after   13 cycles
 SCF Done:  E(RB3LYP) =  -1387.31535842     A.U. after   13 cycles
 SCF Done:  E(RB3LYP) =  -1387.31466040     A.U. after   13 cycles
 SCF Done:  E(RB3LYP) =  -1387.31642682     A.U. after   13 cycles
 SCF Done:  E(RB3LYP) =  -1387.31670415     A.U. after   13 cycles
 SCF Done:  E(RB3LYP) =  -1387.31670275     A.U. after   13 cycles
 SCF Done:  E(RB3LYP) =  -1387.31690554     A.U. after   12 cycles
 SCF Done:  E(RB3LYP) =  -1387.31693967     A.U. after   11 cycles
 SCF Done:  E(RB3LYP) =  -1387.31696706     A.U. after   12 cycles
 SCF Done:  E(RB3LYP) =  -1387.31697916     A.U. after   11 cycles
 SCF Done:  E(RB3LYP) =  -1387.31697838     A.U. after   12 cycles
 SCF Done:  E(RB3LYP) =  -1387.31697771     A.U. after   10 cycles
 SCF Done:  E(RB3LYP) =  -1387.31697561     A.U. after   10 cycles
 SCF Done:  E(RB3LYP) =  -1387.31697540     A.U. after    8 cycles
 SCF Done:  E(RB3LYP) =  -1387.31697559     A.U. after    7 cycles
 Optimization completed.
    -- Stationary point found.

                         Standard orientation:
 ---------------------------------------------------------------------
 Center     Atomic      Atomic             Coordinates (Angstroms)
 Number     Number       Type             X           Y           Z
 ---------------------------------------------------------------------
      1          6           0       -1.893728    0.028587    2.900111
      2          6           0       -2.433188    1.075746    2.264760
      3          6           0       -1.984338    1.430617    0.866293
      4          6           0       -1.430996    0.253976   -0.003315
      5          6           0       -1.008889   -1.053191    0.754945
      6          6           0       -0.829813   -0.842738    2.288780
      7          6           0       -0.299638    0.903357   -0.864614
      8          6           0        1.094655    0.595854   -0.343909
      9          6           0        1.461432   -0.617399    0.128617
     10          6           0        0.362556   -1.609877    0.278835
     11          6           0        2.829966   -1.003298    0.614632
     12          8           0        2.922807   -1.672302    1.632208
     13          6           0        4.053999   -0.540314   -0.178598
     14          6           0        5.377964   -0.909560    0.520646
     15          6           0        3.972461   -1.032297   -1.640130
     16          8           0        0.538996   -2.808159    0.152291
     17          6           0       -0.346596    2.431659   -0.639111
     18          6           0        1.115857    2.870044   -0.873516
     19          8           0        1.888756    1.675792   -0.441156
     20          6           0       -0.894363    2.532135    0.798136
     21          8           0       -0.355968    0.490482   -2.215364
     22          6           0       -2.145862   -2.056588    0.428817
     23          6           0       -3.197211   -1.244850   -0.329314
     24          8           0       -2.441459   -0.164655   -0.932111
     25          6           0       -4.022578   -1.916467   -1.404282
     26          6           0       -4.887070   -0.986693   -2.221182
     27          6           0       -4.038575   -3.241038   -1.576531
     28          6           0        1.421177    3.104872   -2.354894
     29          6           0        1.613936    4.028894   -0.015555
     30          1           0       -1.024325    2.910597   -1.352115
     31          1           0       -2.850073    1.803108    0.301126
     32          6           0       -3.471743    1.968045    2.894270
     33          1           0       -2.204238   -0.201497    3.918443
     34          1           0       -0.816050   -1.829879    2.763034
     35          1           0        0.163107   -0.415057    2.489980
     36          1           0        3.988019    0.556018   -0.209561
     37          1           0        6.176203   -0.318491    0.050414
     38          1           0        5.318203   -0.580096    1.564513
     39          1           0        4.855055   -0.696653   -2.196919
     40          1           0        3.084479   -0.640362   -2.144808
     41          1           0        3.933482   -2.124963   -1.695752
     42          1           0       -1.291294    3.523896    1.035504
     43          1           0       -0.108794    2.313992    1.531584
     44          1           0       -1.220925    0.040072   -2.304731
     45          1           0       -2.564338   -2.511887    1.330283
     46          1           0       -1.732967   -2.858232   -0.187586
     47          1           0       -3.894631   -0.783307    0.389554
     48          1           0       -5.557891   -0.404086   -1.574625
     49          1           0       -4.277453   -0.261398   -2.772007
     50          1           0       -5.500290   -1.540306   -2.938261
     51          1           0       -3.430984   -3.918089   -0.985053
     52          1           0       -4.679737   -3.699507   -2.325211
     53          1           0        1.063900    2.270607   -2.962834
     54          1           0        2.500145    3.219788   -2.501141
     55          1           0        0.928975    4.021961   -2.698341
     56          1           0        1.063346    4.942665   -0.264670
     57          1           0        2.676443    4.209661   -0.207538
     58          1           0        1.490000    3.828036    1.051499
     59          1           0       -3.721472    1.640459    3.908354
     60          1           0       -3.125331    3.009195    2.953485
     61          1           0       -4.397373    1.981451    2.301946
     62          6           0        5.765943   -2.393276    0.489728
     63          1           0        5.927694   -2.753377   -0.532724
     64          1           0        4.991757   -3.009459    0.954178
     65          1           0        6.700149   -2.551324    1.041310
 ---------------------------------------------------------------------

 The electronic state is 1-A.
 Alpha  occ. eigenvalues --  -19.19840 -19.17032 -19.15155 -19.12917 -19.12475
 Alpha  occ. eigenvalues --  -10.26921 -10.26862 -10.26849 -10.26372 -10.26159
 Alpha  occ. eigenvalues --  -10.26054 -10.24824 -10.21225 -10.20689 -10.20554
 Alpha  occ. eigenvalues --  -10.20404 -10.20253 -10.19879 -10.19470 -10.19413
 Alpha  occ. eigenvalues --  -10.19129 -10.18874 -10.18786 -10.18555 -10.18485
 Alpha  occ. eigenvalues --  -10.18395 -10.18212 -10.18199 -10.16866 -10.16744
 Alpha  occ. eigenvalues --  -10.15324  -1.09158  -1.06439  -1.03290  -1.02289
 Alpha  occ. eigenvalues --   -1.02057  -0.86937  -0.83844  -0.82134  -0.81325
 Alpha  occ. eigenvalues --   -0.80104  -0.79203  -0.76790  -0.74002  -0.73093
 Alpha  occ. eigenvalues --   -0.72221  -0.71020  -0.70275  -0.69112  -0.68215
 Alpha  occ. eigenvalues --   -0.64902  -0.64194  -0.63722  -0.62072  -0.60757
 Alpha  occ. eigenvalues --   -0.59120  -0.58339  -0.56784  -0.54950  -0.53128
 Alpha  occ. eigenvalues --   -0.52903  -0.51622  -0.51059  -0.49689  -0.49343
 Alpha  occ. eigenvalues --   -0.48147  -0.47243  -0.47039  -0.46438  -0.45994
 Alpha  occ. eigenvalues --   -0.45171  -0.44453  -0.44190  -0.44094  -0.43081
 Alpha  occ. eigenvalues --   -0.42657  -0.42482  -0.42239  -0.41678  -0.41255
 Alpha  occ. eigenvalues --   -0.40896  -0.40587  -0.40518  -0.39858  -0.39396
 Alpha  occ. eigenvalues --   -0.39164  -0.38943  -0.38592  -0.38324  -0.38064
 Alpha  occ. eigenvalues --   -0.37732  -0.37470  -0.37005  -0.36906  -0.36451
 Alpha  occ. eigenvalues --   -0.35940  -0.35637  -0.35441  -0.34898  -0.34329
 Alpha  occ. eigenvalues --   -0.33721  -0.33135  -0.32947  -0.32360  -0.32001
 Alpha  occ. eigenvalues --   -0.31524  -0.31040  -0.30818  -0.28084  -0.27388
 Alpha  occ. eigenvalues --   -0.25794  -0.24389  -0.24312  -0.23398  -0.22591
 Alpha virt. eigenvalues --   -0.04178  -0.01459   0.01039   0.01207   0.05214
 Alpha virt. eigenvalues --    0.06966   0.07967   0.08683   0.09463   0.10341
 Alpha virt. eigenvalues --    0.10488   0.10895   0.11514   0.11947   0.12382

 Mulliken atomic charges:
              1
     1  C   -0.193064
     2  C    0.197082
     3  C   -0.196288
     4  C    0.313765
     5  C   -0.032121
     6  C   -0.329013
     7  C    0.199694
     8  C    0.400867
     9  C   -0.091962
    10  C    0.399176
    11  C    0.430063
    12  O   -0.459769
    13  C   -0.178451
    14  C   -0.244362
    15  C   -0.461235
    16  O   -0.465465
    17  C   -0.156655
    18  C    0.300835
    19  O   -0.540150
    20  C   -0.308868
    21  O   -0.669829
    22  C   -0.331235
    23  C    0.101829
    24  O   -0.585060
    25  C    0.188830
    26  C   -0.506113
    27  C   -0.393989
    28  C   -0.467369
    29  C   -0.461481
    30  H    0.147827
    31  H    0.146809
    32  C   -0.521019
    33  H    0.125616
    34  H    0.166784
    35  H    0.173173
    36  H    0.160738
    37  H    0.119969
    38  H    0.142124
    39  H    0.144471
    40  H    0.161024
    41  H    0.163951
    42  H    0.151123
    43  H    0.161216
    44  H    0.422544
    45  H    0.150111
    46  H    0.186919
    47  H    0.135987
    48  H    0.150869
    49  H    0.168288
    50  H    0.153919
    51  H    0.153671
    52  H    0.139079
    53  H    0.196075
    54  H    0.155853
    55  H    0.145189
    56  H    0.152135
    57  H    0.162789
    58  H    0.161535
    59  H    0.158769
    60  H    0.155077
    61  H    0.153974
    62  C   -0.452950
    63  H    0.136197
    64  H    0.175816
    65  H    0.134688
 Sum of Mulliken atomic charges =   0.00000

 Dipole moment (field-independent basis, Debye):
    X=             -3.9635    Y=              5.6445    Z=             -0.3824  Tot=              6.9076
 Quadrupole moment (field-independent basis, Debye-Ang):
   XX=           -179.5941   YY=           -182.4147   ZZ=           -185.2353
   XY=              9.0116   XZ=             -6.3752   YZ=              2.8748

 Normal termination of Gaussian 09 at Wed Mar 24 16:03:22 2021.
