 Gaussian 09, Revision B.01,
 Gaussian 09:  EM64L-G09RevB.01 12-Aug-2010

 ---------------------------------------
 # opt rb3lyp/6-31g(d) geom=connectivity
 ---------------------------------------

 -------------------
 Title Card Required
 -------------------
 Symbolic Z-matrix:
 Charge =  0 Multiplicity = 1

 SCF Done:  E(RB3LYP) =  -1387.30299740     A.U. after   16 cycles
 SCF Done:  E(RB3LYP) =  -1387.31530594     A.U. after   13 cycles
 SCF Done:  E(RB3LYP) =  -1387.31780309     A.U. after   13 cycles
 SCF Done:  E(RB3LYP) =  -1387.31797043     A.U. after   13 cycles
 SCF Done:  E(RB3LYP) =  -1387.31848589     A.U. after   13 cycles
 SCF Done:  E(RB3LYP) =  -1387.31863950     A.U. after   13 cycles
 SCF Done:  E(RB3LYP) =  -1387.31907731     A.U. after   12 cycles
 SCF Done:  E(RB3LYP) =  -1387.31926750     A.U. after   13 cycles
 SCF Done:  E(RB3LYP) =  -1387.31929905     A.U. after   12 cycles
 SCF Done:  E(RB3LYP) =  -1387.31931738     A.U. after   11 cycles
 SCF Done:  E(RB3LYP) =  -1387.31932777     A.U. after   10 cycles
 SCF Done:  E(RB3LYP) =  -1387.31933202     A.U. after   10 cycles
 SCF Done:  E(RB3LYP) =  -1387.31933251     A.U. after    8 cycles
 SCF Done:  E(RB3LYP) =  -1387.31933296     A.U. after    8 cycles
 SCF Done:  E(RB3LYP) =  -1387.31933307     A.U. after    7 cycles
 SCF Done:  E(RB3LYP) =  -1387.31933320     A.U. after    7 cycles
 Optimization completed.
    -- Stationary point found.

                         Standard orientation:
 ---------------------------------------------------------------------
 Center     Atomic      Atomic             Coordinates (Angstroms)
 Number     Number       Type             X           Y           Z
 ---------------------------------------------------------------------
      1          6           0       -0.728399   -0.887099    3.140187
      2          6           0       -0.996043    0.417859    3.014143
      3          6           0       -1.536081    0.989525    1.719898
      4          6           0       -1.472143    0.046719    0.477086
      5          6           0       -0.792910   -1.338496    0.621639
      6          6           0       -0.944396   -1.905204    2.055512
      7          6           0       -0.828623    0.913154   -0.637124
      8          6           0        0.687853    0.836506   -0.670514
      9          6           0        1.421881   -0.268673   -0.339029
     10          6           0        0.707439   -1.423409    0.223255
     11          6           0        2.918940   -0.255632   -0.514049
     12          8           0        3.414484    0.466288   -1.368361
     13          6           0        3.821065   -1.086671    0.405768
     14          6           0        4.347969   -2.352556   -0.327436
     15          6           0        4.960406   -0.199957    0.937383
     16          8           0        1.261306   -2.505987    0.398556
     17          6           0       -0.998193    2.395473   -0.243402
     18          6           0        0.160026    3.081252   -1.002408
     19          8           0        1.199167    2.013621   -1.018531
     20          6           0       -0.861749    2.325693    1.290361
     21          8           0       -1.297108    0.557901   -1.923807
     22          6           0       -1.608284   -2.199693   -0.380592
     23          6           0       -3.021235   -1.646820   -0.227589
     24          8           0       -2.829161   -0.226873    0.042398
     25          6           0       -3.995323   -1.785803   -1.379063
     26          6           0       -5.335181   -1.125474   -1.157833
     27          6           0       -3.712022   -2.472928   -2.490045
     28          6           0       -0.185870    3.414192   -2.455323
     29          6           0        0.804905    4.280304   -0.312116
     30          1           0       -1.973860    2.785517   -0.548780
     31          1           0       -2.607794    1.190632    1.859680
     32          6           0       -0.846095    1.375867    4.170291
     33          1           0       -0.375751   -1.263135    4.099851
     34          1           0       -1.948073   -2.340818    2.173315
     35          1           0       -0.242561   -2.738393    2.153764
     36          1           0        3.227055   -1.446084    1.250208
     37          1           0        4.873948   -2.959462    0.422981
     38          1           0        3.482446   -2.943256   -0.643655
     39          1           0        5.652361   -0.796412    1.543733
     40          1           0        4.571041    0.607777    1.568596
     41          1           0        5.518383    0.259184    0.117761
     42          1           0       -1.302288    3.191100    1.793514
     43          1           0        0.197447    2.297748    1.569234
     44          1           0       -2.234164    0.317535   -1.778686
     45          1           0       -1.534228   -3.265555   -0.150366
     46          1           0       -1.242231   -2.035163   -1.397536
     47          1           0       -3.498575   -2.078935    0.666231
     48          1           0       -5.836944   -1.545963   -0.275408
     49          1           0       -5.217716   -0.052383   -0.968309
     50          1           0       -5.994408   -1.258584   -2.020534
     51          1           0       -2.758162   -2.964798   -2.651195
     52          1           0       -4.445334   -2.576725   -3.285879
     53          1           0       -0.631906    2.554830   -2.958706
     54          1           0        0.720232    3.712291   -2.992127
     55          1           0       -0.894765    4.249704   -2.486508
     56          1           0        0.082015    5.100477   -0.239790
     57          1           0        1.661427    4.629723   -0.896665
     58          1           0        1.157245    4.037882    0.693193
     59          1           0       -0.513471    0.854851    5.073291
     60          1           0       -0.122501    2.173413    3.957741
     61          1           0       -1.800226    1.872100    4.398925
     62          6           0        5.278465   -2.105096   -1.519835
     63          1           0        6.210151   -1.613684   -1.217964
     64          1           0        4.805286   -1.474233   -2.278055
     65          1           0        5.547994   -3.058988   -1.988886
 ---------------------------------------------------------------------

 The electronic state is 1-A.
 Alpha  occ. eigenvalues --  -19.19865 -19.16812 -19.15897 -19.12743 -19.11648
 Alpha  occ. eigenvalues --  -10.27753 -10.27214 -10.26698 -10.25914 -10.25873
 Alpha  occ. eigenvalues --  -10.25760 -10.25255 -10.21421 -10.20856 -10.20690
 Alpha  occ. eigenvalues --  -10.20580 -10.20135 -10.19687 -10.19562 -10.19266
 Alpha  occ. eigenvalues --  -10.19062 -10.19025 -10.18954 -10.18942 -10.18826
 Alpha  occ. eigenvalues --  -10.18438 -10.18058 -10.17334 -10.16268 -10.15919
 Alpha  occ. eigenvalues --  -10.15023  -1.09591  -1.06036  -1.02997  -1.02559
 Alpha  occ. eigenvalues --   -1.01598  -0.86861  -0.83685  -0.82451  -0.81433
 Alpha  occ. eigenvalues --   -0.80367  -0.78431  -0.76674  -0.74406  -0.73296
 Alpha  occ. eigenvalues --   -0.71803  -0.70499  -0.69968  -0.69553  -0.67991
 Alpha  occ. eigenvalues --   -0.65423  -0.63970  -0.63500  -0.61483  -0.60700
 Alpha  occ. eigenvalues --   -0.59537  -0.58054  -0.57044  -0.54554  -0.53561
 Alpha  occ. eigenvalues --   -0.52764  -0.51739  -0.50770  -0.50428  -0.49298
 Alpha  occ. eigenvalues --   -0.48235  -0.47152  -0.46580  -0.46316  -0.45760
 Alpha  occ. eigenvalues --   -0.45323  -0.44598  -0.44140  -0.43465  -0.43366
 Alpha  occ. eigenvalues --   -0.42592  -0.42238  -0.42052  -0.41642  -0.41588
 Alpha  occ. eigenvalues --   -0.40889  -0.40610  -0.40242  -0.39978  -0.39302
 Alpha  occ. eigenvalues --   -0.39149  -0.38431  -0.38186  -0.37899  -0.37683
 Alpha  occ. eigenvalues --   -0.37460  -0.37302  -0.37045  -0.36729  -0.36484
 Alpha  occ. eigenvalues --   -0.36296  -0.35632  -0.35116  -0.34481  -0.34210
 Alpha  occ. eigenvalues --   -0.33751  -0.33650  -0.32717  -0.32487  -0.32133
 Alpha  occ. eigenvalues --   -0.31381  -0.30369  -0.30015  -0.28155  -0.26736
 Alpha  occ. eigenvalues --   -0.26408  -0.24565  -0.24327  -0.23517  -0.22140
 Alpha virt. eigenvalues --   -0.05188  -0.01317   0.00256   0.01874   0.06313
 Alpha virt. eigenvalues --    0.07860   0.08445   0.08878   0.09541   0.10372
 Alpha virt. eigenvalues --    0.10716   0.10987   0.11195   0.11991   0.12543

 Mulliken atomic charges:
              1
     1  C   -0.190678
     2  C    0.191629
     3  C   -0.188373
     4  C    0.323465
     5  C   -0.051808
     6  C   -0.334384
     7  C    0.197253
     8  C    0.399740
     9  C   -0.073797
    10  C    0.409118
    11  C    0.416415
    12  O   -0.469283
    13  C   -0.137044
    14  C   -0.264521
    15  C   -0.451227
    16  O   -0.512436
    17  C   -0.162749
    18  C    0.298939
    19  O   -0.493090
    20  C   -0.321679
    21  O   -0.653320
    22  C   -0.324353
    23  C    0.094335
    24  O   -0.591314
    25  C    0.182533
    26  C   -0.507830
    27  C   -0.393372
    28  C   -0.468011
    29  C   -0.459426
    30  H    0.145296
    31  H    0.165099
    32  C   -0.519575
    33  H    0.122627
    34  H    0.147252
    35  H    0.183362
    36  H    0.136997
    37  H    0.127109
    38  H    0.162329
    39  H    0.135365
    40  H    0.133734
    41  H    0.171027
    42  H    0.152210
    43  H    0.162186
    44  H    0.414318
    45  H    0.168784
    46  H    0.172098
    47  H    0.138243
    48  H    0.156106
    49  H    0.170649
    50  H    0.154908
    51  H    0.154435
    52  H    0.142944
    53  H    0.194192
    54  H    0.164644
    55  H    0.141870
    56  H    0.150352
    57  H    0.170578
    58  H    0.159558
    59  H    0.158238
    60  H    0.156626
    61  H    0.151879
    62  C   -0.447770
    63  H    0.138640
    64  H    0.166786
    65  H    0.132170
 Sum of Mulliken atomic charges =   0.00000

 Dipole moment (field-independent basis, Debye):
    X=             -5.5556    Y=              2.4378    Z=              2.4200  Tot=              6.5318
 Quadrupole moment (field-independent basis, Debye-Ang):
   XX=           -188.4900   YY=           -175.3109   ZZ=           -183.5599
   XY=              1.7294   XZ=              8.1749   YZ=              2.6095

 Normal termination of Gaussian 09 at Wed Mar 24 15:48:08 2021.
