 Gaussian 09, Revision B.01,
 Gaussian 09:  EM64L-G09RevB.01 12-Aug-2010

 ---------------------------------------
 # opt rb3lyp/6-31g(d) geom=connectivity
 ---------------------------------------

 -------------------
 Title Card Required
 -------------------
 Symbolic Z-matrix:
 Charge =  0 Multiplicity = 1

 SCF Done:  E(RB3LYP) =  -1387.29964256     A.U. after   16 cycles
 SCF Done:  E(RB3LYP) =  -1387.31182142     A.U. after   13 cycles
 SCF Done:  E(RB3LYP) =  -1387.31370427     A.U. after   13 cycles
 SCF Done:  E(RB3LYP) =  -1387.31263340     A.U. after   13 cycles
 SCF Done:  E(RB3LYP) =  -1387.31433096     A.U. after   13 cycles
 SCF Done:  E(RB3LYP) =  -1387.31433179     A.U. after   12 cycles
 SCF Done:  E(RB3LYP) =  -1387.31447466     A.U. after   12 cycles
 SCF Done:  E(RB3LYP) =  -1387.31452717     A.U. after   11 cycles
 SCF Done:  E(RB3LYP) =  -1387.31455868     A.U. after   12 cycles
 SCF Done:  E(RB3LYP) =  -1387.31458036     A.U. after   12 cycles
 SCF Done:  E(RB3LYP) =  -1387.31456818     A.U. after   13 cycles
 SCF Done:  E(RB3LYP) =  -1387.31459144     A.U. after   13 cycles
 SCF Done:  E(RB3LYP) =  -1387.31459748     A.U. after   10 cycles
 SCF Done:  E(RB3LYP) =  -1387.31460787     A.U. after   11 cycles
 SCF Done:  E(RB3LYP) =  -1387.31462069     A.U. after   12 cycles
 SCF Done:  E(RB3LYP) =  -1387.31462287     A.U. after   10 cycles
 SCF Done:  E(RB3LYP) =  -1387.31462317     A.U. after    8 cycles
 SCF Done:  E(RB3LYP) =  -1387.31462334     A.U. after    7 cycles
 Optimization completed.
    -- Stationary point found.

                         Standard orientation:
 ---------------------------------------------------------------------
 Center     Atomic      Atomic             Coordinates (Angstroms)
 Number     Number       Type             X           Y           Z
 ---------------------------------------------------------------------
      1          6           0       -2.321766    0.880172    2.536958
      2          6           0       -2.681930    1.733431    1.570756
      3          6           0       -1.962524    1.722681    0.242091
      4          6           0       -1.333302    0.358235   -0.192792
      5          6           0       -1.113506   -0.712802    0.934043
      6          6           0       -1.206095   -0.115675    2.373476
      7          6           0       -0.040495    0.761345   -0.972537
      8          6           0        1.222148    0.573621   -0.151801
      9          6           0        1.437294   -0.485435    0.652329
     10          6           0        0.289607   -1.375131    0.906603
     11          6           0        2.704216   -0.739084    1.449128
     12          8           0        2.718917   -0.431541    2.627233
     13          6           0        3.915254   -1.384774    0.775902
     14          6           0        3.511271   -2.425701   -0.288780
     15          6           0        4.845346   -0.279755    0.229554
     16          8           0        0.424754   -2.542636    1.248633
     17          6           0       -0.032213    2.298867   -1.129739
     18          6           0        1.474378    2.641449   -1.197106
     19          8           0        2.094098    1.574066   -0.369974
     20          6           0       -0.811835    2.756186    0.118773
     21          8           0        0.106489    0.035379   -2.177162
     22          6           0       -2.218895   -1.766290    0.666762
     23          6           0       -3.081141   -1.169570   -0.460152
     24          8           0       -2.196617   -0.276098   -1.150355
     25          6           0       -3.700211   -2.173909   -1.403034
     26          6           0       -4.649276   -3.146769   -0.746253
     27          6           0       -3.449785   -2.187080   -2.714163
     28          6           0        2.033569    2.508706   -2.615912
     29          6           0        1.887669    3.964653   -0.560593
     30          1           0       -0.548325    2.600848   -2.046048
     31          1           0       -2.684808    1.953640   -0.553193
     32          6           0       -3.774036    2.756697    1.746578
     33          1           0       -2.825952    0.913798    3.501797
     34          1           0       -0.245560    0.349375    2.640223
     35          1           0       -1.324684   -0.951001    3.071790
     36          1           0        4.444070   -1.892714    1.593591
     37          1           0        2.718549   -3.059542    0.126127
     38          1           0        3.069845   -1.909796   -1.152014
     39          1           0        5.111998    0.426051    1.023154
     40          1           0        5.770961   -0.717349   -0.158111
     41          1           0        4.365769    0.282204   -0.578109
     42          1           0       -0.180665    2.709805    1.014374
     43          1           0       -1.183916    3.782191    0.038088
     44          1           0       -0.744438   -0.432914   -2.293895
     45          1           0       -2.812719   -1.973674    1.560588
     46          1           0       -1.755197   -2.705364    0.353294
     47          1           0       -3.891538   -0.568742   -0.014793
     48          1           0       -5.102068   -3.814524   -1.484580
     49          1           0       -4.139017   -3.765224    0.003409
     50          1           0       -5.459531   -2.620461   -0.222765
     51          1           0       -2.787143   -1.467726   -3.182491
     52          1           0       -3.915578   -2.921587   -3.365810
     53          1           0        3.126497    2.572129   -2.594718
     54          1           0        1.655452    3.321547   -3.246498
     55          1           0        1.737907    1.556511   -3.062174
     56          1           0        2.976027    4.076211   -0.598266
     57          1           0        1.440205    4.800628   -1.109445
     58          1           0        1.575818    4.026863    0.484803
     59          1           0       -4.223127    2.698648    2.743091
     60          1           0       -3.393055    3.778149    1.608946
     61          1           0       -4.571815    2.619520    1.003260
     62          6           0        4.673218   -3.310884   -0.754020
     63          1           0        5.128339   -3.843683    0.090197
     64          1           0        4.322218   -4.063145   -1.469403
     65          1           0        5.462581   -2.733141   -1.247841
 ---------------------------------------------------------------------

 The electronic state is 1-A.
 Alpha  occ. eigenvalues --  -19.19372 -19.17084 -19.14974 -19.13236 -19.13083
 Alpha  occ. eigenvalues --  -10.27101 -10.26972 -10.26604 -10.26429 -10.26166
 Alpha  occ. eigenvalues --  -10.25865 -10.24879 -10.21401 -10.20462 -10.20420
 Alpha  occ. eigenvalues --  -10.20183 -10.20121 -10.19798 -10.19428 -10.19061
 Alpha  occ. eigenvalues --  -10.19024 -10.18875 -10.18808 -10.18755 -10.18712
 Alpha  occ. eigenvalues --  -10.18399 -10.18245 -10.17748 -10.17084 -10.16944
 Alpha  occ. eigenvalues --  -10.16609  -1.08746  -1.06560  -1.03465  -1.02656
 Alpha  occ. eigenvalues --   -1.02213  -0.86857  -0.83655  -0.82130  -0.81309
 Alpha  occ. eigenvalues --   -0.80012  -0.79655  -0.76675  -0.73928  -0.72977
 Alpha  occ. eigenvalues --   -0.72087  -0.71589  -0.70113  -0.69042  -0.68338
 Alpha  occ. eigenvalues --   -0.65451  -0.63925  -0.63653  -0.61615  -0.60734
 Alpha  occ. eigenvalues --   -0.58858  -0.58221  -0.56763  -0.55599  -0.53802
 Alpha  occ. eigenvalues --   -0.52980  -0.51914  -0.50957  -0.50036  -0.49285
 Alpha  occ. eigenvalues --   -0.47859  -0.46885  -0.46657  -0.46418  -0.45856
 Alpha  occ. eigenvalues --   -0.45189  -0.44617  -0.44187  -0.43976  -0.42859
 Alpha  occ. eigenvalues --   -0.42711  -0.42361  -0.42288  -0.41853  -0.41572
 Alpha  occ. eigenvalues --   -0.40758  -0.40745  -0.40376  -0.40261  -0.39497
 Alpha  occ. eigenvalues --   -0.39344  -0.39083  -0.38825  -0.38414  -0.38324
 Alpha  occ. eigenvalues --   -0.37812  -0.37499  -0.37325  -0.36518  -0.36147
 Alpha  occ. eigenvalues --   -0.35878  -0.35225  -0.34964  -0.34744  -0.34432
 Alpha  occ. eigenvalues --   -0.34108  -0.33662  -0.33434  -0.32843  -0.32351
 Alpha  occ. eigenvalues --   -0.31676  -0.31265  -0.30926  -0.28205  -0.27332
 Alpha  occ. eigenvalues --   -0.25138  -0.24534  -0.24288  -0.23423  -0.22677
 Alpha virt. eigenvalues --   -0.03784  -0.01490   0.01115   0.01942   0.03824
 Alpha virt. eigenvalues --    0.06944   0.08177   0.08631   0.09053   0.10106
 Alpha virt. eigenvalues --    0.10458   0.10552   0.10984   0.11411   0.12274

 Mulliken atomic charges:
              1
     1  C   -0.194556
     2  C    0.197758
     3  C   -0.197749
     4  C    0.309572
     5  C   -0.024342
     6  C   -0.332520
     7  C    0.199844
     8  C    0.411279
     9  C   -0.107312
    10  C    0.408869
    11  C    0.412956
    12  O   -0.442636
    13  C   -0.144118
    14  C   -0.278458
    15  C   -0.465074
    16  O   -0.492843
    17  C   -0.156353
    18  C    0.299759
    19  O   -0.539016
    20  C   -0.309703
    21  O   -0.674499
    22  C   -0.325974
    23  C    0.116134
    24  O   -0.588734
    25  C    0.183445
    26  C   -0.518782
    27  C   -0.395257
    28  C   -0.467726
    29  C   -0.460448
    30  H    0.147412
    31  H    0.149227
    32  C   -0.521393
    33  H    0.125350
    34  H    0.180844
    35  H    0.164388
    36  H    0.149626
    37  H    0.168742
    38  H    0.141915
    39  H    0.157917
    40  H    0.150231
    41  H    0.160229
    42  H    0.164937
    43  H    0.150777
    44  H    0.428126
    45  H    0.150091
    46  H    0.184027
    47  H    0.136272
    48  H    0.160459
    49  H    0.168823
    50  H    0.154761
    51  H    0.146134
    52  H    0.136139
    53  H    0.155729
    54  H    0.144456
    55  H    0.194538
    56  H    0.163082
    57  H    0.150214
    58  H    0.162952
    59  H    0.158037
    60  H    0.155744
    61  H    0.154935
    62  C   -0.448829
    63  H    0.143449
    64  H    0.145289
    65  H    0.141853
 Sum of Mulliken atomic charges =   0.00000

 Dipole moment (field-independent basis, Debye):
    X=             -3.4008    Y=              3.6433    Z=             -2.0981  Tot=              5.4076
 Quadrupole moment (field-independent basis, Debye-Ang):
   XX=           -176.0602   YY=           -177.0032   ZZ=           -192.1184
   XY=              4.2487   XZ=            -10.4141   YZ=              0.6940

 Normal termination of Gaussian 09 at Wed Mar 24 17:41:18 2021.
