 Gaussian 09, Revision B.01,
 Gaussian 09:  EM64L-G09RevB.01 12-Aug-2010

 ----------------------------------------
 # opt b3lyp/6-311+g(d) geom=connectivity
 ----------------------------------------

 -------------------
 Title Card Required
 -------------------
 Symbolic Z-matrix:
 Charge =  0 Multiplicity = 1

 SCF Done:  E(RB3LYP) =  -1387.64680341     A.U. after   17 cycles
 SCF Done:  E(RB3LYP) =  -1387.64727674     A.U. after   17 cycles
 SCF Done:  E(RB3LYP) =  -1387.64653078     A.U. after   14 cycles
 SCF Done:  E(RB3LYP) =  -1387.64735327     A.U. after   14 cycles
 SCF Done:  E(RB3LYP) =  -1387.64747131     A.U. after   13 cycles
 SCF Done:  E(RB3LYP) =  -1387.64758930     A.U. after   13 cycles
 SCF Done:  E(RB3LYP) =  -1387.64760819     A.U. after   13 cycles
 SCF Done:  E(RB3LYP) =  -1387.64762872     A.U. after   12 cycles
 SCF Done:  E(RB3LYP) =  -1387.64763324     A.U. after   12 cycles
 SCF Done:  E(RB3LYP) =  -1387.64763980     A.U. after   12 cycles
 SCF Done:  E(RB3LYP) =  -1387.64764191     A.U. after   12 cycles
 SCF Done:  E(RB3LYP) =  -1387.64764464     A.U. after   11 cycles
 SCF Done:  E(RB3LYP) =  -1387.64764603     A.U. after   10 cycles
 SCF Done:  E(RB3LYP) =  -1387.64764619     A.U. after    9 cycles
 Optimization completed.
    -- Stationary point found.

                         Standard orientation:
 ---------------------------------------------------------------------
 Center     Atomic      Atomic             Coordinates (Angstroms)
 Number     Number       Type             X           Y           Z
 ---------------------------------------------------------------------
      1          6           0        0.720820   -2.023767    2.526432
      2          6           0        0.711320   -0.749035    2.923605
      3          6           0        1.191335    0.360977    2.015462
      4          6           0        1.432133   -0.026993    0.523437
      5          6           0        1.041087   -1.452779    0.051840
      6          6           0        1.214790   -2.489385    1.186905
      7          6           0        0.721544    1.094394   -0.282638
      8          6           0       -0.727810    0.784206   -0.596369
      9          6           0       -1.232455   -0.456221   -0.803089
     10          6           0       -0.380443   -1.619338   -0.553048
     11          6           0       -2.662844   -0.634181   -1.273974
     12          8           0       -3.041486   -0.022226   -2.250306
     13          6           0       -3.576853   -1.579313   -0.493265
     14          6           0       -5.003993   -1.624073   -1.069374
     15          6           0       -3.540711   -1.282187    1.018708
     16          8           0       -0.758566   -2.755337   -0.808297
     17          6           0        0.520821    2.304031    0.651588
     18          6           0       -0.686570    3.031865    0.017702
     19          8           0       -1.456572    1.899952   -0.578455
     20          6           0        0.269439    1.611944    2.003255
     21          8           0        1.367015    1.376237   -1.510286
     22          6           0        2.082383   -1.714573   -1.068066
     23          6           0        3.340233   -1.049111   -0.523690
     24          8           0        2.849699    0.092123    0.244434
     25          6           0        4.400318   -0.566525   -1.490649
     26          6           0        5.580141    0.115159   -0.844129
     27          6           0        4.325871   -0.768469   -2.807212
     28          6           0       -0.293383    3.979069   -1.114403
     29          6           0       -1.635115    3.722259    0.990438
     30          1           0        1.406792    2.942369    0.680761
     31          1           0        2.175871    0.683970    2.377652
     32          6           0        0.294288   -0.350256    4.316120
     33          1           0        0.400969   -2.796159    3.223077
     34          1           0        2.275522   -2.756609    1.278482
     35          1           0        0.705883   -3.405180    0.881264
     36          1           0       -3.127541   -2.569454   -0.634243
     37          1           0       -4.936461   -1.803694   -2.145904
     38          1           0       -5.503751   -2.501974   -0.642070
     39          1           0       -2.544871   -1.436161    1.439242
     40          1           0       -4.225822   -1.951610    1.546694
     41          1           0       -3.844340   -0.255947    1.242172
     42          1           0       -0.773437    1.291468    2.072273
     43          1           0        0.456282    2.268871    2.854581
     44          1           0        2.318044    1.267709   -1.346723
     45          1           0        2.211104   -2.781974   -1.253730
     46          1           0        1.761712   -1.239684   -1.996396
     47          1           0        3.834949   -1.717899    0.194367
     48          1           0        6.083522   -0.560044   -0.142330
     49          1           0        5.265136    0.987099   -0.264218
     50          1           0        6.312488    0.438515   -1.586152
     51          1           0        5.120168   -0.438564   -3.469800
     52          1           0        3.490027   -1.271230   -3.279227
     53          1           0       -1.187591    4.325052   -1.637685
     54          1           0        0.221484    4.854190   -0.706986
     55          1           0        0.364591    3.489915   -1.830496
     56          1           0       -1.118057    4.541076    1.498411
     57          1           0       -2.023952    3.040420    1.747149
     58          1           0       -2.484545    4.144892    0.449771
     59          1           0        0.044140   -1.225141    4.919474
     60          1           0        1.098596    0.191271    4.829144
     61          1           0       -0.576525    0.313536    4.315500
     62          6           0       -5.869122   -0.383475   -0.822050
     63          1           0       -6.850819   -0.505546   -1.289320
     64          1           0       -5.412197    0.512243   -1.246657
     65          1           0       -6.041435   -0.207068    0.243988
 ---------------------------------------------------------------------

 The electronic state is 1-A.
 Alpha  occ. eigenvalues --  -19.17666 -19.14675 -19.13878 -19.10688 -19.10572
 Alpha  occ. eigenvalues --  -10.26630 -10.26509 -10.25895 -10.25633 -10.25373
 Alpha  occ. eigenvalues --  -10.25350 -10.24284 -10.20814 -10.19840 -10.19792
 Alpha  occ. eigenvalues --  -10.19688 -10.19001 -10.18731 -10.18510 -10.18382
 Alpha  occ. eigenvalues --  -10.17916 -10.17824 -10.17622 -10.17529 -10.17517
 Alpha  occ. eigenvalues --  -10.17344 -10.16996 -10.16737 -10.15921 -10.15399
 Alpha  occ. eigenvalues --  -10.14192  -1.10330  -1.06913  -1.04533  -1.03862
 Alpha  occ. eigenvalues --   -1.03682  -0.87839  -0.84677  -0.83375  -0.82503
 Alpha  occ. eigenvalues --   -0.81283  -0.80169  -0.77699  -0.75254  -0.74250
 Alpha  occ. eigenvalues --   -0.72894  -0.71872  -0.70718  -0.70290  -0.68861
 Alpha  occ. eigenvalues --   -0.66228  -0.65206  -0.64402  -0.63058  -0.61668
 Alpha  occ. eigenvalues --   -0.60519  -0.59452  -0.58007  -0.55725  -0.54613
 Alpha  occ. eigenvalues --   -0.53702  -0.53033  -0.51793  -0.51324  -0.50276
 Alpha  occ. eigenvalues --   -0.49194  -0.48319  -0.47719  -0.47257  -0.46834
 Alpha  occ. eigenvalues --   -0.46290  -0.45984  -0.45499  -0.44709  -0.44322
 Alpha  occ. eigenvalues --   -0.43788  -0.43544  -0.42889  -0.42617  -0.42335
 Alpha  occ. eigenvalues --   -0.41807  -0.41598  -0.41328  -0.40773  -0.40403
 Alpha  occ. eigenvalues --   -0.40028  -0.39614  -0.39264  -0.39092  -0.38672
 Alpha  occ. eigenvalues --   -0.38511  -0.38355  -0.38145  -0.37905  -0.37825
 Alpha  occ. eigenvalues --   -0.37571  -0.37258  -0.36452  -0.35966  -0.35330
 Alpha  occ. eigenvalues --   -0.34745  -0.34557  -0.33889  -0.33165  -0.32948
 Alpha  occ. eigenvalues --   -0.32485  -0.32099  -0.31940  -0.29283  -0.27810
 Alpha  occ. eigenvalues --   -0.27371  -0.26004  -0.25358  -0.24772  -0.23937
 Alpha virt. eigenvalues --   -0.06022  -0.02920  -0.01887  -0.01368  -0.00273
 Alpha virt. eigenvalues --   -0.00042   0.00214   0.01183   0.01468   0.01766
 Alpha virt. eigenvalues --    0.02053   0.02297   0.03087   0.03221   0.03516

 Mulliken atomic charges:
              1
     1  C   -0.415715
     2  C    0.795086
     3  C   -0.304403
     4  C   -0.851084
     5  C    1.100272
     6  C   -0.827832
     7  C   -1.124710
     8  C    0.423602
     9  C    0.917196
    10  C   -0.472915
    11  C   -0.577075
    12  O   -0.180285
    13  C    0.640618
    14  C   -0.439104
    15  C   -1.199177
    16  O   -0.203896
    17  C   -0.212334
    18  C    0.654384
    19  O    0.180836
    20  C   -1.197004
    21  O   -0.012410
    22  C   -0.532202
    23  C   -0.459427
    24  O    0.048117
    25  C    0.922464
    26  C   -1.012533
    27  C   -1.012162
    28  C   -0.743659
    29  C   -0.756600
    30  H    0.237213
    31  H    0.274121
    32  C   -1.092079
    33  H    0.202398
    34  H    0.237938
    35  H    0.280643
    36  H    0.288703
    37  H    0.248829
    38  H    0.220438
    39  H    0.278900
    40  H    0.260511
    41  H    0.256668
    42  H    0.286146
    43  H    0.270586
    44  H    0.289918
    45  H    0.282407
    46  H    0.268243
    47  H    0.231972
    48  H    0.263160
    49  H    0.268824
    50  H    0.255312
    51  H    0.230598
    52  H    0.238647
    53  H    0.267100
    54  H    0.247319
    55  H    0.313367
    56  H    0.263516
    57  H    0.259398
    58  H    0.271653
    59  H    0.258424
    60  H    0.259057
    61  H    0.257989
    62  C   -0.857081
    63  H    0.237714
    64  H    0.264891
    65  H    0.228507
 Sum of Mulliken atomic charges =   0.00000

 Dipole moment (field-independent basis, Debye):
    X=              4.1324    Y=              2.3719    Z=              4.7507  Tot=              6.7284
 Quadrupole moment (field-independent basis, Debye-Ang):
   XX=           -186.4857   YY=           -183.0557   ZZ=           -192.2922
   XY=             -1.4028   XZ=            -11.5046   YZ=              2.1639

 Normal termination of Gaussian 09 at Tue Apr 13 20:07:05 2021.
