 Gaussian 09, Revision B.01,
 Gaussian 09:  EM64L-G09RevB.01 12-Aug-2010

 ----------------------------------------
 # opt b3lyp/6-311+g(d) geom=connectivity
 ----------------------------------------

 -------------------
 Title Card Required
 -------------------
 Symbolic Z-matrix:
 Charge =  0 Multiplicity = 1

 SCF Done:  E(RB3LYP) =  -1387.64995954     A.U. after   17 cycles
 SCF Done:  E(RB3LYP) =  -1387.65028026     A.U. after   14 cycles
 SCF Done:  E(RB3LYP) =  -1387.64775203     A.U. after   16 cycles
 SCF Done:  E(RB3LYP) =  -1387.65047375     A.U. after   17 cycles
 SCF Done:  E(RB3LYP) =  -1387.65055866     A.U. after   14 cycles
 SCF Done:  E(RB3LYP) =  -1387.65059723     A.U. after   13 cycles
 SCF Done:  E(RB3LYP) =  -1387.65065088     A.U. after   12 cycles
 SCF Done:  E(RB3LYP) =  -1387.65066012     A.U. after   12 cycles
 SCF Done:  E(RB3LYP) =  -1387.65066269     A.U. after   12 cycles
 SCF Done:  E(RB3LYP) =  -1387.65066367     A.U. after   12 cycles
 SCF Done:  E(RB3LYP) =  -1387.65066393     A.U. after   10 cycles
 Optimization completed.
    -- Stationary point found.

                         Standard orientation:
 ---------------------------------------------------------------------
 Center     Atomic      Atomic             Coordinates (Angstroms)
 Number     Number       Type             X           Y           Z
 ---------------------------------------------------------------------
      1          6           0        1.609372    0.649892    3.139778
      2          6           0        1.570075    1.789310    2.445592
      3          6           0        1.657705    1.792428    0.935432
      4          6           0        1.499903    0.405970    0.238008
      5          6           0        1.147734   -0.829244    1.106709
      6          6           0        1.758129   -0.711088    2.523012
      7          6           0        0.468634    0.661328   -0.891529
      8          6           0       -0.964262    0.461250   -0.444428
      9          6           0       -1.368934   -0.433049    0.486286
     10          6           0       -0.360734   -1.172545    1.248131
     11          6           0       -2.837288   -0.569131    0.850768
     12          8           0       -3.446823    0.406167    1.235004
     13          6           0       -3.482125   -1.942202    0.700621
     14          6           0       -3.447283   -2.412455   -0.778379
     15          6           0       -4.882698   -1.976769    1.314922
     16          8           0       -0.671475   -2.051810    2.041034
     17          6           0        0.421968    2.178334   -1.166642
     18          6           0       -0.988807    2.378126   -1.768333
     19          8           0       -1.772721    1.301068   -1.092311
     20          6           0        0.648180    2.751311    0.244610
     21          8           0        0.672777   -0.161688   -2.026750
     22          6           0        1.842606   -1.974066    0.327016
     23          6           0        3.122232   -1.302387   -0.188556
     24          8           0        2.760102    0.075733   -0.400537
     25          6           0        3.736547   -1.918815   -1.425011
     26          6           0        4.023483   -3.394912   -1.322915
     27          6           0        4.051341   -1.198097   -2.502903
     28          6           0       -1.042136    2.125788   -3.274021
     29          6           0       -1.683705    3.688729   -1.417875
     30          1           0        1.204989    2.488238   -1.862689
     31          1           0        2.667547    2.122895    0.660726
     32          6           0        1.506398    3.133976    3.122696
     33          1           0        1.575820    0.691580    4.226421
     34          1           0        2.824869   -0.967777    2.483326
     35          1           0        1.292502   -1.473822    3.149466
     36          1           0       -2.831315   -2.625666    1.256836
     37          1           0       -2.406542   -2.445462   -1.117410
     38          1           0       -3.801612   -3.449249   -0.800008
     39          1           0       -5.322823   -2.971548    1.196904
     40          1           0       -5.552359   -1.248500    0.854807
     41          1           0       -4.846628   -1.748109    2.382182
     42          1           0        1.005711    3.782297    0.227473
     43          1           0       -0.290425    2.748083    0.803941
     44          1           0        1.632386   -0.243041   -2.148003
     45          1           0        1.223453   -2.305836   -0.509793
     46          1           0        2.038654   -2.832803    0.970670
     47          1           0        3.888788   -1.323790    0.600108
     48          1           0        4.640130   -3.618267   -0.444572
     49          1           0        3.104528   -3.980652   -1.217885
     50          1           0        4.554812   -3.756627   -2.204600
     51          1           0        4.508630   -1.659567   -3.372259
     52          1           0        3.892211   -0.126820   -2.543060
     53          1           0       -2.080622    2.109972   -3.612986
     54          1           0       -0.526931    2.931404   -3.805345
     55          1           0       -0.571518    1.179748   -3.536252
     56          1           0       -1.124841    4.530807   -1.835945
     57          1           0       -2.688686    3.706134   -1.844561
     58          1           0       -1.776222    3.833629   -0.342010
     59          1           0        1.526488    3.029910    4.209297
     60          1           0        2.355122    3.764798    2.830673
     61          1           0        0.599663    3.688436    2.859626
     62          6           0       -4.272254   -1.569088   -1.755815
     63          1           0       -4.173799   -1.958314   -2.773400
     64          1           0       -5.336316   -1.577609   -1.506357
     65          1           0       -3.945044   -0.525784   -1.769884
 ---------------------------------------------------------------------

 The electronic state is 1-A.
 Alpha  occ. eigenvalues --  -19.17524 -19.14635 -19.13953 -19.10801 -19.10698
 Alpha  occ. eigenvalues --  -10.26568 -10.26528 -10.25817 -10.25713 -10.25332
 Alpha  occ. eigenvalues --  -10.25251 -10.24400 -10.20766 -10.19913 -10.19780
 Alpha  occ. eigenvalues --  -10.19412 -10.18800 -10.18657 -10.18446 -10.18338
 Alpha  occ. eigenvalues --  -10.18043 -10.17738 -10.17469 -10.17180 -10.17076
 Alpha  occ. eigenvalues --  -10.16940 -10.16876 -10.16839 -10.16503 -10.14936
 Alpha  occ. eigenvalues --  -10.14496  -1.10220  -1.07034  -1.04592  -1.03951
 Alpha  occ. eigenvalues --   -1.03834  -0.87750  -0.84615  -0.83408  -0.82419
 Alpha  occ. eigenvalues --   -0.81181  -0.80322  -0.77598  -0.75172  -0.74091
 Alpha  occ. eigenvalues --   -0.72565  -0.72081  -0.70657  -0.70422  -0.68830
 Alpha  occ. eigenvalues --   -0.66438  -0.65161  -0.64136  -0.62521  -0.61545
 Alpha  occ. eigenvalues --   -0.60427  -0.59660  -0.57941  -0.55716  -0.54922
 Alpha  occ. eigenvalues --   -0.53717  -0.53188  -0.51748  -0.51212  -0.50186
 Alpha  occ. eigenvalues --   -0.48857  -0.48154  -0.47636  -0.47308  -0.46753
 Alpha  occ. eigenvalues --   -0.46024  -0.45799  -0.45399  -0.44834  -0.44240
 Alpha  occ. eigenvalues --   -0.44080  -0.43961  -0.43059  -0.42608  -0.42176
 Alpha  occ. eigenvalues --   -0.41826  -0.41709  -0.41413  -0.40831  -0.40153
 Alpha  occ. eigenvalues --   -0.39876  -0.39612  -0.39070  -0.38783  -0.38509
 Alpha  occ. eigenvalues --   -0.38278  -0.38174  -0.38008  -0.37902  -0.37585
 Alpha  occ. eigenvalues --   -0.37098  -0.36712  -0.36462  -0.35776  -0.35600
 Alpha  occ. eigenvalues --   -0.34911  -0.34554  -0.34246  -0.33778  -0.33010
 Alpha  occ. eigenvalues --   -0.32394  -0.32176  -0.31925  -0.29521  -0.27726
 Alpha  occ. eigenvalues --   -0.26972  -0.25930  -0.25276  -0.24479  -0.24063
 Alpha virt. eigenvalues --   -0.05919  -0.02476  -0.01603  -0.01031  -0.00213
 Alpha virt. eigenvalues --    0.00313   0.00647   0.01145   0.01547   0.01770
 Alpha virt. eigenvalues --    0.02081   0.02534   0.02910   0.03312   0.03625

 Mulliken atomic charges:
              1
     1  C   -0.201230
     2  C    0.702861
     3  C   -0.169843
     4  C   -0.415102
     5  C    0.862321
     6  C   -0.701638
     7  C   -1.131583
     8  C    0.346181
     9  C    0.692680
    10  C   -0.812869
    11  C   -0.239089
    12  O   -0.161355
    13  C    0.385633
    14  C   -0.387662
    15  C   -0.953174
    16  O   -0.197632
    17  C   -0.257944
    18  C    0.624916
    19  O    0.158733
    20  C   -1.146598
    21  O    0.005331
    22  C   -0.808089
    23  C   -0.457456
    24  O   -0.054848
    25  C    1.041029
    26  C   -1.138541
    27  C   -0.769982
    28  C   -0.846305
    29  C   -0.684424
    30  H    0.235055
    31  H    0.277281
    32  C   -1.039189
    33  H    0.201592
    34  H    0.243174
    35  H    0.281713
    36  H    0.282256
    37  H    0.243487
    38  H    0.229629
    39  H    0.237273
    40  H    0.268751
    41  H    0.263578
    42  H    0.265330
    43  H    0.284153
    44  H    0.273500
    45  H    0.294249
    46  H    0.280922
    47  H    0.248421
    48  H    0.261289
    49  H    0.267998
    50  H    0.259778
    51  H    0.223462
    52  H    0.243760
    53  H    0.264999
    54  H    0.252271
    55  H    0.310390
    56  H    0.259866
    57  H    0.269864
    58  H    0.263641
    59  H    0.256883
    60  H    0.254593
    61  H    0.258915
    62  C   -1.075911
    63  H    0.244097
    64  H    0.249829
    65  H    0.278783
 Sum of Mulliken atomic charges =   0.00000

 Dipole moment (field-independent basis, Debye):
    X=              4.4822    Y=              1.5296    Z=             -2.4616  Tot=              5.3376
 Quadrupole moment (field-independent basis, Debye-Ang):
   XX=           -194.6738   YY=           -175.4394   ZZ=           -189.5181
   XY=             -1.9037   XZ=              6.8635   YZ=             -0.2678

 Normal termination of Gaussian 09 at Tue Apr 13 17:44:28 2021.
