 Gaussian 09, Revision B.01,
 Gaussian 09:  EM64L-G09RevB.01 12-Aug-2010

 ----------------------------------------
 # opt b3lyp/6-311+g(d) geom=connectivity
 ----------------------------------------

 -------------------
 Title Card Required
 -------------------
 Symbolic Z-matrix:
 Charge =  0 Multiplicity = 1

 SCF Done:  E(RB3LYP) =  -1387.64903609     A.U. after   17 cycles
 SCF Done:  E(RB3LYP) =  -1387.64950771     A.U. after   13 cycles
 SCF Done:  E(RB3LYP) =  -1387.64848613     A.U. after   15 cycles
 SCF Done:  E(RB3LYP) =  -1387.64964487     A.U. after   14 cycles
 SCF Done:  E(RB3LYP) =  -1387.64972322     A.U. after   13 cycles
 SCF Done:  E(RB3LYP) =  -1387.64981857     A.U. after   14 cycles
 SCF Done:  E(RB3LYP) =  -1387.64992953     A.U. after   17 cycles
 SCF Done:  E(RB3LYP) =  -1387.64995324     A.U. after   14 cycles
 SCF Done:  E(RB3LYP) =  -1387.64996901     A.U. after   15 cycles
 SCF Done:  E(RB3LYP) =  -1387.65006172     A.U. after   14 cycles
 SCF Done:  E(RB3LYP) =  -1387.65006800     A.U. after   14 cycles
 SCF Done:  E(RB3LYP) =  -1387.65008296     A.U. after   13 cycles
 SCF Done:  E(RB3LYP) =  -1387.65008618     A.U. after   12 cycles
 SCF Done:  E(RB3LYP) =  -1387.65008629     A.U. after   11 cycles
 SCF Done:  E(RB3LYP) =  -1387.65008644     A.U. after   11 cycles
 SCF Done:  E(RB3LYP) =  -1387.65008642     A.U. after    9 cycles
 Optimization completed.
    -- Stationary point found.

                         Standard orientation:
 ---------------------------------------------------------------------
 Center     Atomic      Atomic             Coordinates (Angstroms)
 Number     Number       Type             X           Y           Z
 ---------------------------------------------------------------------
      1          6           0       -2.187178    0.305839   -2.696128
      2          6           0       -2.687022    1.273689   -1.923927
      3          6           0       -2.063479    1.561449   -0.579509
      4          6           0       -1.369513    0.354126    0.132578
      5          6           0       -0.993607   -0.871465   -0.766199
      6          6           0       -1.002423   -0.524101   -2.284987
      7          6           0       -0.165584    0.993380    0.885283
      8          6           0        1.166833    0.747424    0.191083
      9          6           0        1.518732   -0.455407   -0.336517
     10          6           0        0.435682   -1.439242   -0.507292
     11          6           0        2.932419   -0.733658   -0.766060
     12          8           0        3.578379    0.130622   -1.327299
     13          6           0        3.557084   -2.100472   -0.462697
     14          6           0        4.903883   -1.915829    0.263634
     15          6           0        3.737890   -2.875936   -1.780417
     16          8           0        0.624368   -2.637899   -0.636446
     17          6           0       -0.268662    2.525134    0.754142
     18          6           0        1.202049    2.987609    0.831579
     19          8           0        1.940973    1.821184    0.268003
     20          6           0       -1.000144    2.688479   -0.590694
     21          8           0       -0.046360    0.529062    2.217574
     22          6           0       -2.069848   -1.930411   -0.413438
     23          6           0       -3.033551   -1.224216    0.555587
     24          8           0       -2.245351   -0.176927    1.139042
     25          6           0       -3.660716   -2.105765    1.606639
     26          6           0       -4.507891   -3.223879    1.054293
     27          6           0       -3.499438   -1.902319    2.913614
     28          6           0        1.680093    3.185262    2.269189
     29          6           0        1.575004    4.179475   -0.039943
     30          1           0       -0.857613    2.942889    1.573259
     31          1           0       -2.852815    1.872456    0.115579
     32          6           0       -3.847487    2.138481   -2.336052
     33          1           0       -2.620538    0.115952   -3.675613
     34          1           0       -0.971028   -1.462074   -2.844975
     35          1           0       -0.076861    0.003762   -2.547194
     36          1           0        2.876936   -2.666030    0.176808
     37          1           0        5.369775   -2.904054    0.354708
     38          1           0        5.566623   -1.315197   -0.366824
     39          1           0        2.779391   -3.056657   -2.271479
     40          1           0        4.197688   -3.848761   -1.584099
     41          1           0        4.384350   -2.324298   -2.468003
     42          1           0       -0.316195    2.538864   -1.431521
     43          1           0       -1.446339    3.677334   -0.714722
     44          1           0       -0.845495    0.006590    2.399354
     45          1           0       -1.593368   -2.789026    0.060620
     46          1           0       -2.589825   -2.293981   -1.300723
     47          1           0       -3.845478   -0.752787   -0.018669
     48          1           0       -3.911292   -3.928498    0.465270
     49          1           0       -5.289926   -2.840171    0.388647
     50          1           0       -4.993683   -3.784069    1.854805
     51          1           0       -3.970611   -2.551960    3.644371
     52          1           0       -2.905054   -1.083950    3.300336
     53          1           0        2.762960    3.328001    2.287199
     54          1           0        1.213273    4.076021    2.699377
     55          1           0        1.426701    2.328744    2.893446
     56          1           0        1.038017    5.070947    0.295726
     57          1           0        1.340785    4.009502   -1.091002
     58          1           0        2.645479    4.380423    0.036336
     59          1           0       -4.219092    1.870712   -3.327449
     60          1           0       -4.679438    2.052166   -1.627071
     61          1           0       -3.569261    3.198579   -2.359553
     62          6           0        4.788247   -1.280087    1.651665
     63          1           0        5.766237   -1.224480    2.138658
     64          1           0        4.127761   -1.859435    2.304874
     65          1           0        4.393631   -0.261213    1.599975
 ---------------------------------------------------------------------

 The electronic state is 1-A.
 Alpha  occ. eigenvalues --  -19.17844 -19.15200 -19.13572 -19.10951 -19.10159
 Alpha  occ. eigenvalues --  -10.26617 -10.26504 -10.25892 -10.25822 -10.25702
 Alpha  occ. eigenvalues --  -10.25349 -10.24106 -10.20982 -10.19841 -10.19826
 Alpha  occ. eigenvalues --  -10.19341 -10.19255 -10.19151 -10.18858 -10.18246
 Alpha  occ. eigenvalues --  -10.17967 -10.17882 -10.17865 -10.17665 -10.17631
 Alpha  occ. eigenvalues --  -10.16959 -10.16611 -10.16409 -10.15456 -10.14750
 Alpha  occ. eigenvalues --  -10.14563  -1.10547  -1.07826  -1.04640  -1.03854
 Alpha  occ. eigenvalues --   -1.03559  -0.88188  -0.84799  -0.83255  -0.82449
 Alpha  occ. eigenvalues --   -0.81099  -0.79771  -0.77818  -0.74998  -0.74161
 Alpha  occ. eigenvalues --   -0.73199  -0.72055  -0.70896  -0.69996  -0.69372
 Alpha  occ. eigenvalues --   -0.65972  -0.64809  -0.64287  -0.62426  -0.61929
 Alpha  occ. eigenvalues --   -0.60223  -0.59655  -0.57950  -0.55882  -0.54608
 Alpha  occ. eigenvalues --   -0.53883  -0.53054  -0.52071  -0.51179  -0.50424
 Alpha  occ. eigenvalues --   -0.49174  -0.48619  -0.47982  -0.47546  -0.47031
 Alpha  occ. eigenvalues --   -0.46255  -0.45302  -0.45148  -0.44532  -0.43517
 Alpha  occ. eigenvalues --   -0.43467  -0.43298  -0.42954  -0.42762  -0.42404
 Alpha  occ. eigenvalues --   -0.41796  -0.41505  -0.41230  -0.40966  -0.40782
 Alpha  occ. eigenvalues --   -0.40674  -0.40264  -0.39943  -0.39514  -0.39275
 Alpha  occ. eigenvalues --   -0.38568  -0.38341  -0.38212  -0.37484  -0.37106
 Alpha  occ. eigenvalues --   -0.36688  -0.36186  -0.35740  -0.35590  -0.35380
 Alpha  occ. eigenvalues --   -0.34916  -0.34673  -0.34071  -0.33535  -0.33301
 Alpha  occ. eigenvalues --   -0.32480  -0.32086  -0.31507  -0.29619  -0.28858
 Alpha  occ. eigenvalues --   -0.26264  -0.25797  -0.25522  -0.24628  -0.23712
 Alpha virt. eigenvalues --   -0.06044  -0.02573  -0.01611  -0.00995  -0.00608
 Alpha virt. eigenvalues --    0.00211   0.00445   0.00760   0.01554   0.01715
 Alpha virt. eigenvalues --    0.01987   0.02126   0.03221   0.03302   0.03465

 Mulliken atomic charges:
              1
     1  C   -0.569320
     2  C    1.048653
     3  C   -0.035145
     4  C    0.340108
     5  C    1.204670
     6  C   -1.369915
     7  C   -1.079032
     8  C    0.243462
     9  C    0.794300
    10  C   -1.006428
    11  C   -0.308326
    12  O   -0.184200
    13  C    0.392858
    14  C   -0.343429
    15  C   -1.105881
    16  O   -0.179364
    17  C   -0.376662
    18  C    0.802977
    19  O    0.216777
    20  C   -1.524024
    21  O   -0.069491
    22  C   -0.640133
    23  C   -0.403890
    24  O    0.001568
    25  C    0.929973
    26  C   -1.177287
    27  C   -0.751444
    28  C   -0.811497
    29  C   -0.624171
    30  H    0.238486
    31  H    0.265203
    32  C   -1.207476
    33  H    0.206163
    34  H    0.259926
    35  H    0.261560
    36  H    0.235882
    37  H    0.217821
    38  H    0.262824
    39  H    0.276682
    40  H    0.234199
    41  H    0.267179
    42  H    0.292962
    43  H    0.263122
    44  H    0.284567
    45  H    0.292221
    46  H    0.258586
    47  H    0.257817
    48  H    0.264665
    49  H    0.252729
    50  H    0.260540
    51  H    0.221002
    52  H    0.229199
    53  H    0.265419
    54  H    0.250140
    55  H    0.311738
    56  H    0.260960
    57  H    0.270552
    58  H    0.273893
    59  H    0.250431
    60  H    0.259491
    61  H    0.248383
    62  C   -0.950095
    63  H    0.246013
    64  H    0.241242
    65  H    0.260264
 Sum of Mulliken atomic charges =   0.00000

 Dipole moment (field-independent basis, Debye):
    X=             -5.2618    Y=              2.9721    Z=              0.0275  Tot=              6.0433
 Quadrupole moment (field-independent basis, Debye-Ang):
   XX=           -191.4089   YY=           -178.5293   ZZ=           -189.7740
   XY=              1.4345   XZ=              9.3172   YZ=              1.0676

 Normal termination of Gaussian 09 at Tue Apr 13 20:40:41 2021.
