 Gaussian 09, Revision B.01,
 Gaussian 09:  EM64L-G09RevB.01 12-Aug-2010

 ----------------------------------------
 # opt b3lyp/6-311+g(d) geom=connectivity
 ----------------------------------------

 -------------------
 Title Card Required
 -------------------
 Symbolic Z-matrix:
 Charge =  0 Multiplicity = 1

 SCF Done:  E(RB3LYP) =  -1387.64636118     A.U. after   16 cycles
 SCF Done:  E(RB3LYP) =  -1387.64696837     A.U. after   14 cycles
 SCF Done:  E(RB3LYP) =  -1387.64670432     A.U. after   14 cycles
 SCF Done:  E(RB3LYP) =  -1387.64680904     A.U. after   13 cycles
 SCF Done:  E(RB3LYP) =  -1387.64707360     A.U. after   14 cycles
 SCF Done:  E(RB3LYP) =  -1387.64704606     A.U. after   14 cycles
 SCF Done:  E(RB3LYP) =  -1387.64715904     A.U. after   13 cycles
 SCF Done:  E(RB3LYP) =  -1387.64716924     A.U. after   12 cycles
 SCF Done:  E(RB3LYP) =  -1387.64716916     A.U. after   11 cycles
 SCF Done:  E(RB3LYP) =  -1387.64716974     A.U. after   11 cycles
 SCF Done:  E(RB3LYP) =  -1387.64716997     A.U. after   10 cycles
 Optimization completed.
    -- Stationary point found.

                         Standard orientation:
 ---------------------------------------------------------------------
 Center     Atomic      Atomic             Coordinates (Angstroms)
 Number     Number       Type             X           Y           Z
 ---------------------------------------------------------------------
      1          6           0        0.644654   -1.076877    3.053394
      2          6           0        0.880289    0.236781    3.018705
      3          6           0        1.442002    0.902944    1.782102
      4          6           0        1.459518    0.038937    0.481832
      5          6           0        0.821246   -1.375282    0.514110
      6          6           0        0.928747   -2.017405    1.918178
      7          6           0        0.831767    0.959090   -0.598899
      8          6           0       -0.677021    0.833543   -0.701202
      9          6           0       -1.375919   -0.310108   -0.467910
     10          6           0       -0.654250   -1.479059    0.040956
     11          6           0       -2.866885   -0.354728   -0.695241
     12          8           0       -3.347947    0.230530   -1.645993
     13          6           0       -3.760131   -1.065860    0.325529
     14          6           0       -4.454674   -2.314836   -0.278615
     15          6           0       -4.760276   -0.051029    0.906073
     16          8           0       -1.191670   -2.575942    0.112870
     17          6           0        0.930157    2.415472   -0.103364
     18          6           0       -0.222162    3.113386   -0.859399
     19          8           0       -1.220229    2.010344   -0.990294
     20          6           0        0.740241    2.240580    1.414157
     21          8           0        1.360626    0.717632   -1.889286
     22          6           0        1.710987   -2.155004   -0.489832
     23          6           0        3.093661   -1.566540   -0.243090
     24          8           0        2.840527   -0.168513    0.089861
     25          6           0        4.129242   -1.624375   -1.344780
     26          6           0        5.432361   -0.936112   -1.025215
     27          6           0        3.928277   -2.276859   -2.490910
     28          6           0        0.163320    3.564105   -2.267281
     29          6           0       -0.931104    4.236642   -0.112407
     30          1           0        1.899277    2.857667   -0.344557
     31          1           0        2.498142    1.128612    1.977060
     32          6           0        0.672899    1.115843    4.225325
     33          1           0        0.273615   -1.522941    3.973990
     34          1           0        1.936556   -2.431987    2.052129
     35          1           0        0.254673   -2.875721    1.943612
     36          1           0       -3.128837   -1.429827    1.138653
     37          1           0       -3.676234   -2.985767   -0.651244
     38          1           0       -4.930998   -2.844412    0.556146
     39          1           0       -4.245656    0.752813    1.441528
     40          1           0       -5.430675   -0.545290    1.615920
     41          1           0       -5.365276    0.408261    0.123489
     42          1           0        1.132601    3.082385    1.987445
     43          1           0       -0.323889    2.164146    1.651975
     44          1           0        2.297714    0.498890   -1.757127
     45          1           0        1.382906   -1.960789   -1.512218
     46          1           0        1.664979   -3.230396   -0.312428
     47          1           0        3.540376   -2.025491    0.650309
     48          1           0        5.278199    0.125613   -0.813601
     49          1           0        5.892383   -1.367788   -0.128641
     50          1           0        6.144755   -1.025434   -1.847433
     51          1           0        4.705281   -2.331494   -3.247234
     52          1           0        3.000627   -2.787183   -2.722313
     53          1           0       -0.727782    3.883879   -2.811941
     54          1           0        0.850569    4.413449   -2.211494
     55          1           0        0.645666    2.762232   -2.823351
     56          1           0       -0.241259    5.069412    0.049967
     57          1           0       -1.772282    4.605669   -0.702657
     58          1           0       -1.315305    3.915186    0.855584
     59          1           0        0.337662    0.533375    5.085789
     60          1           0        1.602961    1.624532    4.507552
     61          1           0       -0.068893    1.900923    4.045944
     62          6           0       -5.495908   -2.062445   -1.372603
     63          1           0       -5.897875   -3.015142   -1.731276
     64          1           0       -6.340625   -1.471152   -1.007981
     65          1           0       -5.070030   -1.533455   -2.226534
 ---------------------------------------------------------------------

 The electronic state is 1-A.
 Alpha  occ. eigenvalues --  -19.17842 -19.14747 -19.13986 -19.10675 -19.10089
 Alpha  occ. eigenvalues --  -10.26934 -10.26452 -10.25931 -10.25472 -10.25405
 Alpha  occ. eigenvalues --  -10.25283 -10.24323 -10.20843 -10.19898 -10.19830
 Alpha  occ. eigenvalues --  -10.19737 -10.19049 -10.18767 -10.18512 -10.18446
 Alpha  occ. eigenvalues --  -10.18042 -10.17807 -10.17646 -10.17560 -10.17544
 Alpha  occ. eigenvalues --  -10.17381 -10.16773 -10.16757 -10.15274 -10.15138
 Alpha  occ. eigenvalues --  -10.13671  -1.10587  -1.07032  -1.04478  -1.03787
 Alpha  occ. eigenvalues --   -1.03495  -0.87877  -0.84709  -0.83418  -0.82502
 Alpha  occ. eigenvalues --   -0.81322  -0.79642  -0.77713  -0.75294  -0.74279
 Alpha  occ. eigenvalues --   -0.72788  -0.71540  -0.70759  -0.70322  -0.68920
 Alpha  occ. eigenvalues --   -0.66419  -0.65006  -0.64437  -0.62537  -0.61685
 Alpha  occ. eigenvalues --   -0.60580  -0.59117  -0.58060  -0.55728  -0.54636
 Alpha  occ. eigenvalues --   -0.53772  -0.52940  -0.51773  -0.51410  -0.50306
 Alpha  occ. eigenvalues --   -0.49257  -0.48335  -0.47668  -0.47395  -0.46781
 Alpha  occ. eigenvalues --   -0.46313  -0.45580  -0.45315  -0.44497  -0.44317
 Alpha  occ. eigenvalues --   -0.43764  -0.43148  -0.43061  -0.42610  -0.42383
 Alpha  occ. eigenvalues --   -0.42033  -0.41478  -0.41432  -0.40947  -0.40258
 Alpha  occ. eigenvalues --   -0.40073  -0.39327  -0.39167  -0.38909  -0.38597
 Alpha  occ. eigenvalues --   -0.38441  -0.38352  -0.38024  -0.37830  -0.37497
 Alpha  occ. eigenvalues --   -0.37377  -0.36998  -0.36127  -0.35689  -0.35277
 Alpha  occ. eigenvalues --   -0.34791  -0.34605  -0.33832  -0.33425  -0.33207
 Alpha  occ. eigenvalues --   -0.32423  -0.31542  -0.31227  -0.29349  -0.27846
 Alpha  occ. eigenvalues --   -0.27453  -0.26025  -0.25461  -0.24661  -0.23649
 Alpha virt. eigenvalues --   -0.06311  -0.02945  -0.01917  -0.01365  -0.00308
 Alpha virt. eigenvalues --   -0.00056   0.00236   0.01173   0.01480   0.01745
 Alpha virt. eigenvalues --    0.02125   0.02289   0.03049   0.03206   0.03600

 Mulliken atomic charges:
              1
     1  C   -0.340137
     2  C    0.668560
     3  C   -0.327743
     4  C   -0.693931
     5  C    1.252419
     6  C   -0.810288
     7  C   -1.206187
     8  C    0.466937
     9  C    0.927452
    10  C   -0.892704
    11  C   -0.453344
    12  O   -0.198450
    13  C    0.623048
    14  C   -0.460700
    15  C   -1.018835
    16  O   -0.176299
    17  C   -0.317915
    18  C    0.650477
    19  O    0.168377
    20  C   -1.015506
    21  O   -0.013679
    22  C   -0.430475
    23  C   -0.630928
    24  O    0.052718
    25  C    0.997319
    26  C   -1.016187
    27  C   -1.018876
    28  C   -0.698410
    29  C   -0.736497
    30  H    0.240414
    31  H    0.273099
    32  C   -1.092733
    33  H    0.201611
    34  H    0.242166
    35  H    0.276792
    36  H    0.233260
    37  H    0.260090
    38  H    0.213973
    39  H    0.237751
    40  H    0.244815
    41  H    0.280429
    42  H    0.266969
    43  H    0.274602
    44  H    0.293419
    45  H    0.269843
    46  H    0.286661
    47  H    0.236857
    48  H    0.268549
    49  H    0.263355
    50  H    0.255201
    51  H    0.230895
    52  H    0.239421
    53  H    0.266725
    54  H    0.246771
    55  H    0.311991
    56  H    0.262438
    57  H    0.272532
    58  H    0.256545
    59  H    0.257083
    60  H    0.255237
    61  H    0.257234
    62  C   -0.968193
    63  H    0.235469
    64  H    0.233316
    65  H    0.265197
 Sum of Mulliken atomic charges =   0.00000

 Dipole moment (field-independent basis, Debye):
    X=              5.3089    Y=              2.7640    Z=              3.3731  Tot=              6.8703
 Quadrupole moment (field-independent basis, Debye-Ang):
   XX=           -191.6510   YY=           -179.9716   ZZ=           -189.5423
   XY=             -2.2859   XZ=            -10.1296   YZ=              2.1579

 Normal termination of Gaussian 09 at Tue Apr 13 20:28:43 2021.
