 Gaussian 09, Revision B.01,
 Gaussian 09:  EM64L-G09RevB.01 12-Aug-2010

 ----------------------------------------
 # opt b3lyp/6-311+g(d) geom=connectivity
 ----------------------------------------

 -------------------
 Title Card Required
 -------------------
 Symbolic Z-matrix:
 Charge =  0 Multiplicity = 1

 SCF Done:  E(RB3LYP) =  -1387.64884663     A.U. after   17 cycles
 SCF Done:  E(RB3LYP) =  -1387.64938716     A.U. after   14 cycles
 SCF Done:  E(RB3LYP) =  -1387.64903015     A.U. after   14 cycles
 SCF Done:  E(RB3LYP) =  -1387.64967148     A.U. after   14 cycles
 SCF Done:  E(RB3LYP) =  -1387.65003262     A.U. after   14 cycles
 SCF Done:  E(RB3LYP) =  -1387.65019709     A.U. after   15 cycles
 SCF Done:  E(RB3LYP) =  -1387.65066753     A.U. after   14 cycles
 SCF Done:  E(RB3LYP) =  -1387.65095222     A.U. after   14 cycles
 SCF Done:  E(RB3LYP) =  -1387.65104640     A.U. after   12 cycles
 SCF Done:  E(RB3LYP) =  -1387.65082748     A.U. after   15 cycles
 SCF Done:  E(RB3LYP) =  -1387.65084235     A.U. after   16 cycles
 SCF Done:  E(RB3LYP) =  -1387.65098943     A.U. after   15 cycles
 SCF Done:  E(RB3LYP) =  -1387.65110236     A.U. after   15 cycles
 SCF Done:  E(RB3LYP) =  -1387.65111743     A.U. after   13 cycles
 SCF Done:  E(RB3LYP) =  -1387.65111865     A.U. after   11 cycles
 SCF Done:  E(RB3LYP) =  -1387.65111882     A.U. after    9 cycles
 SCF Done:  E(RB3LYP) =  -1387.65111883     A.U. after    9 cycles
 Optimization completed.
    -- Stationary point found.

                         Standard orientation:
 ---------------------------------------------------------------------
 Center     Atomic      Atomic             Coordinates (Angstroms)
 Number     Number       Type             X           Y           Z
 ---------------------------------------------------------------------
      1          6           0        2.215533    0.412623    2.697418
      2          6           0        2.779284    1.281152    1.854200
      3          6           0        2.169111    1.506698    0.491252
      4          6           0        1.412456    0.289526   -0.135705
      5          6           0        0.989540   -0.846913    0.851675
      6          6           0        0.986912   -0.377050    2.336538
      7          6           0        0.232051    0.934972   -0.922815
      8          6           0       -1.104945    0.785129   -0.212051
      9          6           0       -1.500526   -0.374221    0.378258
     10          6           0       -0.451643   -1.387874    0.594251
     11          6           0       -2.921218   -0.576325    0.825052
     12          8           0       -3.531723    0.339939    1.341937
     13          6           0       -3.597813   -1.932601    0.595014
     14          6           0       -4.944816   -1.733875   -0.127283
     15          6           0       -3.792509   -2.636362    1.950516
     16          8           0       -0.679811   -2.576139    0.751439
     17          6           0        0.401209    2.465780   -0.885550
     18          6           0       -1.049894    2.985042   -0.978031
     19          8           0       -1.832708    1.885927   -0.341968
     20          6           0        1.156747    2.679553    0.438048
     21          8           0        0.087609    0.397254   -2.225027
     22          6           0        2.046059   -1.955216    0.612831
     23          6           0        2.999816   -1.404536   -0.462047
     24          8           0        2.243956   -0.357224   -1.109227
     25          6           0        3.481582   -2.406955   -1.483045
     26          6           0        2.476109   -2.951600   -2.463818
     27          6           0        4.756948   -2.799484   -1.468568
     28          6           0       -1.533259    3.119493   -2.421139
     29          6           0       -1.363059    4.240442   -0.174867
     30          1           0        0.996360    2.807041   -1.735120
     31          1           0        2.968416    1.735179   -0.223923
     32          6           0        3.993654    2.098340    2.202749
     33          1           0        2.633768    0.271669    3.691547
     34          1           0        0.089181    0.221178    2.535484
     35          1           0        0.895252   -1.262033    2.971686
     36          1           0       -2.945153   -2.552421   -0.022525
     37          1           0       -5.446064   -2.707978   -0.169512
     38          1           0       -5.579408   -1.082124    0.480959
     39          1           0       -4.288726   -3.600281    1.805954
     40          1           0       -4.411780   -2.029008    2.615794
     41          1           0       -2.836562   -2.827997    2.442560
     42          1           0        0.477403    2.613416    1.293109
     43          1           0        1.647754    3.653173    0.495868
     44          1           0        0.883469   -0.136182   -2.388998
     45          1           0        1.546361   -2.868409    0.291109
     46          1           0        2.598707   -2.196200    1.521766
     47          1           0        3.869641   -0.941826    0.017201
     48          1           0        1.567682   -3.306891   -1.968359
     49          1           0        2.165953   -2.180486   -3.175780
     50          1           0        2.896007   -3.780472   -3.036369
     51          1           0        5.128537   -3.561543   -2.146312
     52          1           0        5.477096   -2.378948   -0.772953
     53          1           0       -1.035409    3.964949   -2.904619
     54          1           0       -1.319815    2.219482   -2.997361
     55          1           0       -2.609711    3.304356   -2.439854
     56          1           0       -2.424397    4.483628   -0.255743
     57          1           0       -1.126814    4.121701    0.882793
     58          1           0       -0.790697    5.086475   -0.565329
     59          1           0        4.817854    1.901666    1.506871
     60          1           0        3.786079    3.173026    2.140978
     61          1           0        4.347165    1.885536    3.213871
     62          6           0       -4.820551   -1.165059   -1.543321
     63          1           0       -4.386778   -0.160991   -1.539847
     64          1           0       -5.800934   -1.093286   -2.023300
     65          1           0       -4.189682   -1.797533   -2.176243
 ---------------------------------------------------------------------

 The electronic state is 1-A.
 Alpha  occ. eigenvalues --  -19.17860 -19.15092 -19.13559 -19.11094 -19.10193
 Alpha  occ. eigenvalues --  -10.26610 -10.26584 -10.25908 -10.25735 -10.25672
 Alpha  occ. eigenvalues --  -10.25392 -10.23916 -10.20904 -10.19808 -10.19805
 Alpha  occ. eigenvalues --  -10.19391 -10.19316 -10.19110 -10.18834 -10.18266
 Alpha  occ. eigenvalues --  -10.17936 -10.17829 -10.17681 -10.17634 -10.17222
 Alpha  occ. eigenvalues --  -10.17194 -10.16986 -10.16472 -10.15509 -10.14834
 Alpha  occ. eigenvalues --  -10.14616  -1.10539  -1.07607  -1.04732  -1.03767
 Alpha  occ. eigenvalues --   -1.03593  -0.88162  -0.84799  -0.83230  -0.82437
 Alpha  occ. eigenvalues --   -0.81067  -0.79823  -0.77796  -0.74935  -0.74095
 Alpha  occ. eigenvalues --   -0.73149  -0.72103  -0.70918  -0.70229  -0.69236
 Alpha  occ. eigenvalues --   -0.66003  -0.64694  -0.64278  -0.62478  -0.61781
 Alpha  occ. eigenvalues --   -0.60079  -0.59669  -0.57916  -0.55933  -0.54701
 Alpha  occ. eigenvalues --   -0.53774  -0.52948  -0.52184  -0.51176  -0.50471
 Alpha  occ. eigenvalues --   -0.49088  -0.48601  -0.48001  -0.47618  -0.46959
 Alpha  occ. eigenvalues --   -0.46253  -0.45333  -0.45180  -0.44640  -0.43746
 Alpha  occ. eigenvalues --   -0.43386  -0.43328  -0.42771  -0.42376  -0.42200
 Alpha  occ. eigenvalues --   -0.41845  -0.41528  -0.41259  -0.41001  -0.40778
 Alpha  occ. eigenvalues --   -0.40514  -0.40406  -0.39913  -0.39390  -0.38850
 Alpha  occ. eigenvalues --   -0.38586  -0.38236  -0.38140  -0.37800  -0.37242
 Alpha  occ. eigenvalues --   -0.36897  -0.36263  -0.35716  -0.35612  -0.35401
 Alpha  occ. eigenvalues --   -0.34873  -0.34617  -0.34061  -0.33369  -0.33320
 Alpha  occ. eigenvalues --   -0.32583  -0.32161  -0.31581  -0.29604  -0.28865
 Alpha  occ. eigenvalues --   -0.26622  -0.25874  -0.25507  -0.24620  -0.23756
 Alpha virt. eigenvalues --   -0.06104  -0.02617  -0.01493  -0.01361  -0.00550
 Alpha virt. eigenvalues --   -0.00054   0.00366   0.00708   0.01697   0.01809
 Alpha virt. eigenvalues --    0.01878   0.02144   0.03013   0.03293   0.03465

 Mulliken atomic charges:
              1
     1  C   -0.723196
     2  C    1.027500
     3  C   -0.091098
     4  C    0.311448
     5  C    1.111424
     6  C   -1.353735
     7  C   -1.037772
     8  C    0.323973
     9  C    0.866508
    10  C   -1.138007
    11  C   -0.301454
    12  O   -0.175453
    13  C    0.407451
    14  C   -0.335026
    15  C   -1.103124
    16  O   -0.159040
    17  C   -0.331170
    18  C    0.779846
    19  O    0.209354
    20  C   -1.427345
    21  O   -0.074485
    22  C   -0.452367
    23  C   -0.211250
    24  O    0.040811
    25  C    0.713585
    26  C   -1.094016
    27  C   -0.996723
    28  C   -0.822754
    29  C   -0.599873
    30  H    0.241298
    31  H    0.265399
    32  C   -1.185605
    33  H    0.207481
    34  H    0.262844
    35  H    0.264328
    36  H    0.236577
    37  H    0.217853
    38  H    0.263085
    39  H    0.234376
    40  H    0.267373
    41  H    0.276436
    42  H    0.292313
    43  H    0.262543
    44  H    0.287754
    45  H    0.302213
    46  H    0.256744
    47  H    0.243135
    48  H    0.282651
    49  H    0.266098
    50  H    0.260388
    51  H    0.228945
    52  H    0.214622
    53  H    0.249660
    54  H    0.311470
    55  H    0.265541
    56  H    0.273479
    57  H    0.270044
    58  H    0.261019
    59  H    0.262242
    60  H    0.249502
    61  H    0.250208
    62  C   -0.953806
    63  H    0.260816
    64  H    0.246045
    65  H    0.240920
 Sum of Mulliken atomic charges =   0.00000

 Dipole moment (field-independent basis, Debye):
    X=              4.9827    Y=              2.8479    Z=             -0.6132  Tot=              5.7718
 Quadrupole moment (field-independent basis, Debye-Ang):
   XX=           -192.4875   YY=           -179.6614   ZZ=           -188.8206
   XY=              2.0665   XZ=              8.4936   YZ=             -0.0561

 Normal termination of Gaussian 09 at Tue Apr 13 19:40:36 2021.
