 Gaussian 09, Revision B.01,
 Gaussian 09:  EM64L-G09RevB.01 12-Aug-2010

 --------------------------------------
 # opt b3lyp/6-31g(d) geom=connectivity
 --------------------------------------

 -------------------
 Title Card Required
 -------------------
 Symbolic Z-matrix:
 Charge =  0 Multiplicity = 1

 SCF Done:  E(RB3LYP) =  -1718.35815638     A.U. after   15 cycles
 SCF Done:  E(RB3LYP) =  -1718.36989628     A.U. after   13 cycles
 SCF Done:  E(RB3LYP) =  -1718.37216186     A.U. after   12 cycles
 SCF Done:  E(RB3LYP) =  -1718.36995201     A.U. after   13 cycles
 SCF Done:  E(RB3LYP) =  -1718.37260911     A.U. after   12 cycles
 SCF Done:  E(RB3LYP) =  -1718.37309601     A.U. after   12 cycles
 SCF Done:  E(RB3LYP) =  -1718.37243306     A.U. after   13 cycles
 SCF Done:  E(RB3LYP) =  -1718.37323516     A.U. after   12 cycles
 SCF Done:  E(RB3LYP) =  -1718.37334170     A.U. after   11 cycles
 SCF Done:  E(RB3LYP) =  -1718.37331131     A.U. after   12 cycles
 SCF Done:  E(RB3LYP) =  -1718.37246762     A.U. after   13 cycles
 SCF Done:  E(RB3LYP) =  -1718.37342175     A.U. after   13 cycles
 SCF Done:  E(RB3LYP) =  -1718.37340296     A.U. after   12 cycles
 SCF Done:  E(RB3LYP) =  -1718.37344558     A.U. after   12 cycles
 SCF Done:  E(RB3LYP) =  -1718.37345485     A.U. after   10 cycles
 SCF Done:  E(RB3LYP) =  -1718.37346087     A.U. after   10 cycles
 SCF Done:  E(RB3LYP) =  -1718.37346163     A.U. after    9 cycles
 SCF Done:  E(RB3LYP) =  -1718.37346179     A.U. after    7 cycles
 SCF Done:  E(RB3LYP) =  -1718.37346184     A.U. after    6 cycles
 SCF Done:  E(RB3LYP) =  -1718.37346188     A.U. after    6 cycles
 Optimization completed.
    -- Stationary point found.

                         Standard orientation:
 ---------------------------------------------------------------------
 Center     Atomic      Atomic             Coordinates (Angstroms)
 Number     Number       Type             X           Y           Z
 ---------------------------------------------------------------------
      1          6           0       -4.645707    2.429424    0.505272
      2          6           0       -3.256831    2.624767    0.554317
      3          6           0       -2.334016    1.604749    0.289931
      4          6           0       -2.786778    0.329873   -0.050684
      5          6           0       -4.185737    0.096948   -0.123253
      6          6           0       -5.104131    1.150479    0.161793
      7          6           0       -1.894260   -0.780419   -0.348717
      8          6           0       -2.428930   -1.960066   -0.729366
      9          8           0       -3.778930   -2.177188   -0.804743
     10          6           0       -4.696784   -1.199899   -0.497090
     11          6           0       -0.393096   -0.599737   -0.255247
     12          6           0        0.426841   -1.906306   -0.338843
     13          6           0       -0.185575   -2.836590   -1.406814
     14          6           0       -1.647758   -3.181890   -1.107726
     15          6           0       -5.592662    3.561598    0.805188
     16          8           0       -6.430037    0.945851    0.104823
     17          8           0       -2.843789    3.880791    0.880326
     18          8           0       -5.882486   -1.514601   -0.578404
     19          8           0        1.759799   -1.684117   -0.781662
     20          6           0        2.645078   -0.850741   -0.005249
     21          6           0        4.006014   -1.552170    0.000728
     22          6           0        5.027700   -0.739191    0.799569
     23          6           0        5.044312    0.704163    0.393129
     24          6           0        4.007188    1.294072   -0.220626
     25          6           0        2.755898    0.546872   -0.634219
     26          8           0        3.978175   -2.833362    0.598701
     27          8           0        6.334592   -1.276232    0.650741
     28          6           0        4.007043    2.745329   -0.553560
     29          8           0        5.174817    3.363130   -0.270553
     30          8           0        3.047800    3.323929   -1.032385
     31          6           0        5.219219    4.764613   -0.578107
     32          6           0        0.484318   -2.704888    0.982301
     33          8           0       -0.474222   -2.377324    1.868955
     34          8           0        1.294880   -3.582937    1.196229
     35          1           0       -1.271791    1.824690    0.340448
     36          1           0       -0.150883   -0.067786    0.671767
     37          1           0       -0.050966    0.035645   -1.081630
     38          1           0        0.426015   -3.740239   -1.479356
     39          1           0       -0.109086   -2.306924   -2.362770
     40          1           0       -2.113505   -3.643313   -1.986174
     41          1           0       -1.724841   -3.927415   -0.302861
     42          1           0       -6.627560    3.231134    0.709963
     43          1           0       -5.438316    3.945306    1.820699
     44          1           0       -5.427557    4.403112    0.122083
     45          1           0       -6.570481   -0.002336   -0.153667
     46          1           0       -1.874198    3.914050    0.861425
     47          1           0        2.282868   -0.781695    1.031037
     48          1           0        4.358079   -1.614741   -1.042580
     49          1           0        4.724041   -0.797055    1.861941
     50          1           0        5.932729    1.272023    0.651410
     51          1           0        1.878124    1.155317   -0.397565
     52          1           0        2.746831    0.429964   -1.726358
     53          1           0        3.120499   -3.255821    0.405541
     54          1           0        6.249817   -2.222794    0.856861
     55          1           0        6.220178    5.092734   -0.296658
     56          1           0        5.045997    4.929586   -1.644843
     57          1           0        4.461536    5.308959   -0.007798
     58          1           0       -0.360414   -2.971867    2.636513
 ---------------------------------------------------------------------

 The electronic state is 1-A.
 Alpha  occ. eigenvalues --  -19.23187 -19.22251 -19.19850 -19.19773 -19.17849
 Alpha  occ. eigenvalues --  -19.17449 -19.17052 -19.14502 -19.14363 -19.14192
 Alpha  occ. eigenvalues --  -19.14113 -10.35065 -10.32906 -10.32162 -10.28845
 Alpha  occ. eigenvalues --  -10.27375 -10.26962 -10.26790 -10.25975 -10.24661
 Alpha  occ. eigenvalues --  -10.24609 -10.23934 -10.22767 -10.21990 -10.21936
 Alpha  occ. eigenvalues --  -10.21743 -10.21663 -10.21613 -10.21037 -10.20831
 Alpha  occ. eigenvalues --  -10.20438 -10.19934 -10.19835 -10.17767  -1.14178
 Alpha  occ. eigenvalues --   -1.12632  -1.10764  -1.07934  -1.06662  -1.06480
 Alpha  occ. eigenvalues --   -1.04531  -1.03118  -1.02966  -1.01846  -1.00672
 Alpha  occ. eigenvalues --   -0.88189  -0.86377  -0.84816  -0.81001  -0.79185
 Alpha  occ. eigenvalues --   -0.77319  -0.76278  -0.75714  -0.74691  -0.72320
 Alpha  occ. eigenvalues --   -0.70318  -0.69310  -0.66913  -0.66474  -0.65221
 Alpha  occ. eigenvalues --   -0.63915  -0.62471  -0.61646  -0.59480  -0.58536
 Alpha  occ. eigenvalues --   -0.57301  -0.55478  -0.54981  -0.54825  -0.53790
 Alpha  occ. eigenvalues --   -0.53058  -0.51772  -0.51446  -0.51026  -0.49983
 Alpha  occ. eigenvalues --   -0.48923  -0.48737  -0.48462  -0.48151  -0.47609
 Alpha  occ. eigenvalues --   -0.47163  -0.47065  -0.46144  -0.45261  -0.44753
 Alpha  occ. eigenvalues --   -0.44507  -0.44253  -0.43952  -0.43697  -0.43166
 Alpha  occ. eigenvalues --   -0.42878  -0.42488  -0.41799  -0.41235  -0.40708
 Alpha  occ. eigenvalues --   -0.40585  -0.39915  -0.39672  -0.39498  -0.39135
 Alpha  occ. eigenvalues --   -0.38777  -0.38375  -0.37874  -0.37514  -0.37417
 Alpha  occ. eigenvalues --   -0.36315  -0.35572  -0.35237  -0.35115  -0.34897
 Alpha  occ. eigenvalues --   -0.34722  -0.34032  -0.33609  -0.32921  -0.30832
 Alpha  occ. eigenvalues --   -0.30660  -0.29421  -0.28525  -0.28177  -0.27906
 Alpha  occ. eigenvalues --   -0.26709  -0.26402  -0.25856  -0.23695  -0.21753
 Alpha virt. eigenvalues --   -0.04837  -0.04768  -0.03285  -0.02796   0.03658
 Alpha virt. eigenvalues --    0.04504   0.05147   0.06210   0.06709   0.06904
 Alpha virt. eigenvalues --    0.08181   0.09299   0.09795   0.10657   0.10723

 Mulliken atomic charges:
              1
     1  C    0.098540
     2  C    0.322057
     3  C   -0.306181
     4  C    0.136886
     5  C   -0.061459
     6  C    0.239183
     7  C    0.073385
     8  C    0.292177
     9  O   -0.500329
    10  C    0.596829
    11  C   -0.387040
    12  C    0.260207
    13  C   -0.301332
    14  C   -0.367503
    15  C   -0.517851
    16  O   -0.655293
    17  O   -0.633447
    18  O   -0.534406
    19  O   -0.544988
    20  C    0.096236
    21  C    0.126092
    22  C    0.111113
    23  C   -0.156051
    24  C    0.054389
    25  C   -0.350365
    26  O   -0.684211
    27  O   -0.642637
    28  C    0.602757
    29  O   -0.463491
    30  O   -0.498793
    31  C   -0.216426
    32  C    0.590426
    33  O   -0.559229
    34  O   -0.475073
    35  H    0.125558
    36  H    0.165088
    37  H    0.184494
    38  H    0.174545
    39  H    0.172266
    40  H    0.183822
    41  H    0.175779
    42  H    0.184323
    43  H    0.165194
    44  H    0.166535
    45  H    0.448013
    46  H    0.416651
    47  H    0.130718
    48  H    0.133375
    49  H    0.137154
    50  H    0.177758
    51  H    0.165104
    52  H    0.177157
    53  H    0.431798
    54  H    0.411929
    55  H    0.167785
    56  H    0.172575
    57  H    0.168106
    58  H    0.420101
 Sum of Mulliken atomic charges =   0.00000

 Dipole moment (field-independent basis, Debye):
    X=              2.6768    Y=              1.2348    Z=              1.5267  Tot=              3.3198
 Quadrupole moment (field-independent basis, Debye-Ang):
   XX=           -239.4690   YY=           -184.8933   ZZ=           -187.4946
   XY=             12.9869   XZ=             -2.1881   YZ=              0.8634

 Normal termination of Gaussian 09 at Tue Feb  2 13:26:07 2021.
