 Gaussian 09, Revision B.01,
 Gaussian 09:  EM64L-G09RevB.01 12-Aug-2010

 --------------------------------------
 # opt b3lyp/6-31g(d) geom=connectivity
 --------------------------------------

 -------------------
 Title Card Required
 -------------------
 Symbolic Z-matrix:
 Charge =  0 Multiplicity = 1

 SCF Done:  E(RB3LYP) =  -1718.35731462     A.U. after   15 cycles
 SCF Done:  E(RB3LYP) =  -1718.36925221     A.U. after   13 cycles
 SCF Done:  E(RB3LYP) =  -1718.37153589     A.U. after   12 cycles
 SCF Done:  E(RB3LYP) =  -1718.37084050     A.U. after   13 cycles
 SCF Done:  E(RB3LYP) =  -1718.37211414     A.U. after   13 cycles
 SCF Done:  E(RB3LYP) =  -1718.37259968     A.U. after   12 cycles
 SCF Done:  E(RB3LYP) =  -1718.37251557     A.U. after   12 cycles
 SCF Done:  E(RB3LYP) =  -1718.37279631     A.U. after   12 cycles
 SCF Done:  E(RB3LYP) =  -1718.37284899     A.U. after   10 cycles
 SCF Done:  E(RB3LYP) =  -1718.37283894     A.U. after   11 cycles
 SCF Done:  E(RB3LYP) =  -1718.37319096     A.U. after   13 cycles
 SCF Done:  E(RB3LYP) =  -1718.37320046     A.U. after   11 cycles
 SCF Done:  E(RB3LYP) =  -1718.37310395     A.U. after   13 cycles
 SCF Done:  E(RB3LYP) =  -1718.37321669     A.U. after   13 cycles
 SCF Done:  E(RB3LYP) =  -1718.37323041     A.U. after   10 cycles
 SCF Done:  E(RB3LYP) =  -1718.37324459     A.U. after   11 cycles
 SCF Done:  E(RB3LYP) =  -1718.37324634     A.U. after    8 cycles
 SCF Done:  E(RB3LYP) =  -1718.37324698     A.U. after   10 cycles
 SCF Done:  E(RB3LYP) =  -1718.37324713     A.U. after    8 cycles
 SCF Done:  E(RB3LYP) =  -1718.37324715     A.U. after    6 cycles
 Optimization completed.
    -- Stationary point found.

                         Standard orientation:
 ---------------------------------------------------------------------
 Center     Atomic      Atomic             Coordinates (Angstroms)
 Number     Number       Type             X           Y           Z
 ---------------------------------------------------------------------
      1          6           0        4.722341    2.281372   -0.794824
      2          6           0        3.341291    2.535505   -0.844399
      3          6           0        2.382694    1.604078   -0.429358
      4          6           0        2.789360    0.364755    0.060126
      5          6           0        4.179722    0.074411    0.133051
      6          6           0        5.135731    1.036801   -0.298925
      7          6           0        1.858150   -0.658557    0.516177
      8          6           0        2.352173   -1.813618    1.016227
      9          8           0        3.694961   -2.083153    1.082025
     10          6           0        4.644053   -1.190011    0.649919
     11          6           0        0.360857   -0.427633    0.456409
     12          6           0       -0.450737   -1.730223    0.562696
     13          6           0        0.069191   -2.566663    1.738312
     14          6           0        1.539936   -2.954888    1.551263
     15          6           0        5.724072    3.311716   -1.255428
     16          8           0        6.453018    0.781938   -0.242874
     17          8           0        2.860787    3.721101   -1.307130
     18          8           0        5.818619   -1.542543    0.747240
     19          8           0       -1.831687   -1.495745    0.868582
     20          6           0       -2.642786   -0.687063   -0.007351
     21          6           0       -3.851132   -1.528749   -0.423176
     22          6           0       -4.747945   -0.741396   -1.377403
     23          6           0       -5.049452    0.625309   -0.837884
     24          6           0       -4.297134    1.232747    0.092747
     25          6           0       -3.091272    0.577796    0.738016
     26          8           0       -3.481375   -2.712800   -1.118347
     27          8           0       -5.971148   -1.424143   -1.614095
     28          6           0       -4.707298    2.603046    0.521543
     29          8           0       -3.901204    3.078034    1.502847
     30          8           0       -5.641976    3.234308    0.070360
     31          6           0       -4.232825    4.389693    1.984381
     32          6           0       -0.408876   -2.594305   -0.720997
     33          8           0       -0.127134   -1.898132   -1.840680
     34          8           0       -0.665655   -3.780141   -0.736705
     35          1           0        1.338923    1.883833   -0.497464
     36          1           0        0.111943    0.093996   -0.471226
     37          1           0        0.043328    0.221210    1.283713
     38          1           0       -0.550987   -3.459512    1.842194
     39          1           0       -0.057448   -1.960864    2.642067
     40          1           0        1.974027   -3.281884    2.503727
     41          1           0        1.629097   -3.812177    0.870256
     42          1           0        6.738423    2.924245   -1.153172
     43          1           0        5.581586    3.580889   -2.312150
     44          1           0        5.665836    4.236278   -0.662839
     45          1           0        6.557479   -0.134155    0.129506
     46          1           0        3.602019    4.290902   -1.565679
     47          1           0       -2.080248   -0.423204   -0.910572
     48          1           0       -4.437577   -1.773731    0.476097
     49          1           0       -4.195249   -0.630245   -2.329510
     50          1           0       -5.915878    1.138612   -1.245692
     51          1           0       -2.262479    1.290276    0.805792
     52          1           0       -3.328825    0.300564    1.773812
     53          1           0       -2.946313   -3.263728   -0.522807
     54          1           0       -5.718021   -2.324415   -1.879814
     55          1           0       -3.493475    4.614660    2.753719
     56          1           0       -4.180661    5.120712    1.173193
     57          1           0       -5.242001    4.399867    2.404661
     58          1           0       -0.211841   -2.526634   -2.584344
 ---------------------------------------------------------------------

 The electronic state is 1-A.
 Alpha  occ. eigenvalues --  -19.22365 -19.22272 -19.19871 -19.19704 -19.17773
 Alpha  occ. eigenvalues --  -19.17552 -19.16387 -19.15869 -19.14649 -19.14516
 Alpha  occ. eigenvalues --  -19.13490 -10.34253 -10.33036 -10.31695 -10.28156
 Alpha  occ. eigenvalues --  -10.27408 -10.27276 -10.27189 -10.25508 -10.24850
 Alpha  occ. eigenvalues --  -10.24394 -10.24368 -10.22779 -10.21730 -10.21437
 Alpha  occ. eigenvalues --  -10.21398 -10.21314 -10.20955 -10.20673 -10.20629
 Alpha  occ. eigenvalues --  -10.20611 -10.20386 -10.20127 -10.19479  -1.13245
 Alpha  occ. eigenvalues --   -1.12710  -1.10364  -1.08130  -1.06920  -1.06084
 Alpha  occ. eigenvalues --   -1.03883  -1.03669  -1.03106  -1.01444  -1.01352
 Alpha  occ. eigenvalues --   -0.88145  -0.86291  -0.84703  -0.81080  -0.78847
 Alpha  occ. eigenvalues --   -0.77213  -0.76553  -0.76182  -0.74580  -0.72197
 Alpha  occ. eigenvalues --   -0.71073  -0.68976  -0.66662  -0.66420  -0.65240
 Alpha  occ. eigenvalues --   -0.64125  -0.62122  -0.61688  -0.58836  -0.58418
 Alpha  occ. eigenvalues --   -0.57520  -0.55811  -0.55361  -0.54331  -0.53685
 Alpha  occ. eigenvalues --   -0.52359  -0.51366  -0.51211  -0.50786  -0.49695
 Alpha  occ. eigenvalues --   -0.49207  -0.48579  -0.48466  -0.48026  -0.47321
 Alpha  occ. eigenvalues --   -0.47232  -0.46592  -0.46015  -0.45335  -0.44826
 Alpha  occ. eigenvalues --   -0.44707  -0.44245  -0.43919  -0.43574  -0.43237
 Alpha  occ. eigenvalues --   -0.42386  -0.42097  -0.41911  -0.41346  -0.41045
 Alpha  occ. eigenvalues --   -0.40713  -0.40094  -0.39971  -0.39848  -0.39282
 Alpha  occ. eigenvalues --   -0.39176  -0.38524  -0.37848  -0.37601  -0.37333
 Alpha  occ. eigenvalues --   -0.36185  -0.35609  -0.35577  -0.35485  -0.34996
 Alpha  occ. eigenvalues --   -0.34337  -0.34065  -0.33523  -0.32419  -0.31170
 Alpha  occ. eigenvalues --   -0.30551  -0.29153  -0.28683  -0.28270  -0.27889
 Alpha  occ. eigenvalues --   -0.26919  -0.26742  -0.25551  -0.23775  -0.22099
 Alpha virt. eigenvalues --   -0.04984  -0.04445  -0.03157  -0.02397   0.03545
 Alpha virt. eigenvalues --    0.05203   0.05408   0.05988   0.06641   0.07471
 Alpha virt. eigenvalues --    0.08207   0.09647   0.10370   0.10797   0.11027

 Mulliken atomic charges:
              1
     1  C    0.110353
     2  C    0.299285
     3  C   -0.269971
     4  C    0.142213
     5  C   -0.061082
     6  C    0.238827
     7  C    0.055683
     8  C    0.282311
     9  O   -0.497333
    10  C    0.599605
    11  C   -0.381531
    12  C    0.249095
    13  C   -0.287559
    14  C   -0.365642
    15  C   -0.585788
    16  O   -0.659405
    17  O   -0.638093
    18  O   -0.536341
    19  O   -0.550851
    20  C    0.108534
    21  C    0.100765
    22  C    0.108310
    23  C   -0.148402
    24  C    0.055613
    25  C   -0.349068
    26  O   -0.664734
    27  O   -0.637928
    28  C    0.596124
    29  O   -0.468233
    30  O   -0.489299
    31  C   -0.217590
    32  C    0.603517
    33  O   -0.564859
    34  O   -0.482752
    35  H    0.139999
    36  H    0.178976
    37  H    0.173976
    38  H    0.173589
    39  H    0.160162
    40  H    0.178970
    41  H    0.189526
    42  H    0.209988
    43  H    0.161372
    44  H    0.162314
    45  H    0.449403
    46  H    0.422471
    47  H    0.149617
    48  H    0.137965
    49  H    0.139603
    50  H    0.184306
    51  H    0.164341
    52  H    0.174523
    53  H    0.417404
    54  H    0.407440
    55  H    0.163876
    56  H    0.172786
    57  H    0.173580
    58  H    0.420038
 Sum of Mulliken atomic charges =   0.00000

 Dipole moment (field-independent basis, Debye):
    X=              1.2944    Y=              2.3821    Z=              0.2092  Tot=              2.7192
 Quadrupole moment (field-independent basis, Debye-Ang):
   XX=           -242.3457   YY=           -184.6700   ZZ=           -183.0585
   XY=             20.3019   XZ=            -15.0161   YZ=              3.2750

 Normal termination of Gaussian 09 at Tue Feb  2 12:05:45 2021.
