 Gaussian 09, Revision B.01,
 Gaussian 09:  EM64L-G09RevB.01 12-Aug-2010

 --------------------------------------
 # opt b3lyp/6-31g(d) geom=connectivity
 --------------------------------------

 -------------------
 Title Card Required
 -------------------
 Symbolic Z-matrix:
 Charge =  0 Multiplicity = 1

 SCF Done:  E(RB3LYP) =  -1718.35666124     A.U. after   15 cycles
 SCF Done:  E(RB3LYP) =  -1718.36869587     A.U. after   13 cycles
 SCF Done:  E(RB3LYP) =  -1718.37083316     A.U. after   13 cycles
 SCF Done:  E(RB3LYP) =  -1718.36959436     A.U. after   13 cycles
 SCF Done:  E(RB3LYP) =  -1718.37134964     A.U. after   12 cycles
 SCF Done:  E(RB3LYP) =  -1718.37177605     A.U. after   12 cycles
 SCF Done:  E(RB3LYP) =  -1718.37174829     A.U. after   12 cycles
 SCF Done:  E(RB3LYP) =  -1718.37190138     A.U. after   11 cycles
 SCF Done:  E(RB3LYP) =  -1718.37194140     A.U. after   11 cycles
 SCF Done:  E(RB3LYP) =  -1718.37194326     A.U. after   10 cycles
 SCF Done:  E(RB3LYP) =  -1718.37197207     A.U. after   11 cycles
 SCF Done:  E(RB3LYP) =  -1718.37199889     A.U. after   10 cycles
 SCF Done:  E(RB3LYP) =  -1718.37200924     A.U. after   10 cycles
 SCF Done:  E(RB3LYP) =  -1718.37198408     A.U. after   11 cycles
 SCF Done:  E(RB3LYP) =  -1718.37201080     A.U. after   11 cycles
 SCF Done:  E(RB3LYP) =  -1718.37201833     A.U. after   10 cycles
 SCF Done:  E(RB3LYP) =  -1718.37201920     A.U. after    9 cycles
 SCF Done:  E(RB3LYP) =  -1718.37201950     A.U. after    9 cycles
 SCF Done:  E(RB3LYP) =  -1718.37201950     A.U. after    7 cycles
 SCF Done:  E(RB3LYP) =  -1718.37201950     A.U. after    5 cycles
 Optimization completed.
    -- Stationary point found.

                         Standard orientation:
 ---------------------------------------------------------------------
 Center     Atomic      Atomic             Coordinates (Angstroms)
 Number     Number       Type             X           Y           Z
 ---------------------------------------------------------------------
      1          6           0        5.762728   -0.676550   -1.191005
      2          6           0        4.798633   -1.688509   -1.314857
      3          6           0        3.539958   -1.621994   -0.703881
      4          6           0        3.202050   -0.512009    0.071222
      5          6           0        4.154161    0.530307    0.224551
      6          6           0        5.428047    0.438471   -0.410674
      7          6           0        1.917845   -0.366671    0.740838
      8          6           0        1.696134    0.731634    1.496572
      9          8           0        2.618907    1.734804    1.637121
     10          6           0        3.850061    1.691638    1.026024
     11          6           0        0.860387   -1.442865    0.612975
     12          6           0       -0.540455   -0.992829    1.077362
     13          6           0       -0.431911   -0.228170    2.405353
     14          6           0        0.437408    1.024991    2.255205
     15          6           0        7.099852   -0.798750   -1.873502
     16          8           0        6.338623    1.415838   -0.278032
     17          8           0        5.155778   -2.761241   -2.075279
     18          8           0        4.594315    2.650675    1.219787
     19          8           0       -1.034244   -0.190583   -0.006963
     20          6           0       -2.282701    0.510093    0.114761
     21          6           0       -2.172336    1.684445   -0.858859
     22          6           0       -3.387764    2.597775   -0.731392
     23          6           0       -4.659287    1.803353   -0.792276
     24          6           0       -4.719781    0.484057   -0.552910
     25          6           0       -3.501418   -0.360979   -0.229649
     26          8           0       -1.022605    2.481976   -0.605239
     27          8           0       -3.411250    3.576138   -1.761232
     28          6           0       -6.061477   -0.166680   -0.638897
     29          8           0       -5.979344   -1.505239   -0.437554
     30          8           0       -7.109548    0.404195   -0.864258
     31          6           0       -7.229330   -2.209187   -0.507435
     32          6           0       -1.426849   -2.240534    1.259421
     33          8           0       -1.493136   -2.982460    0.130483
     34          8           0       -2.001648   -2.547696    2.280175
     35          1           0        2.840209   -2.441554   -0.838596
     36          1           0        1.163421   -2.332209    1.184304
     37          1           0        0.764389   -1.761608   -0.429468
     38          1           0        0.011994   -0.908903    3.139825
     39          1           0       -1.419713    0.026118    2.798099
     40          1           0       -0.108818    1.824685    1.737189
     41          1           0        0.703319    1.422843    3.241495
     42          1           0        7.694932    0.101020   -1.713594
     43          1           0        7.660347   -1.660752   -1.491783
     44          1           0        6.977308   -0.954533   -2.951493
     45          1           0        5.935570    2.117127    0.298010
     46          1           0        4.419829   -3.392746   -2.100716
     47          1           0       -2.388871    0.915419    1.128946
     48          1           0       -2.145391    1.290977   -1.887034
     49          1           0       -3.326442    3.096305    0.254042
     50          1           0       -5.568803    2.345903   -1.034908
     51          1           0       -3.735759   -1.037695    0.597929
     52          1           0       -3.248790   -1.000615   -1.085117
     53          1           0       -0.258604    1.885815   -0.677439
     54          1           0       -2.548054    4.021328   -1.723346
     55          1           0       -6.986933   -3.256028   -0.321391
     56          1           0       -7.923412   -1.834255    0.249325
     57          1           0       -7.683190   -2.087687   -1.494528
     58          1           0       -2.079053   -3.736447    0.334473
 ---------------------------------------------------------------------

 The electronic state is 1-A.
 Alpha  occ. eigenvalues --  -19.22257 -19.22115 -19.19971 -19.19956 -19.18209
 Alpha  occ. eigenvalues --  -19.17134 -19.16630 -19.16459 -19.14957 -19.14411
 Alpha  occ. eigenvalues --  -19.13722 -10.34230 -10.32956 -10.31930 -10.28515
 Alpha  occ. eigenvalues --  -10.27422 -10.27101 -10.26895 -10.25898 -10.25173
 Alpha  occ. eigenvalues --  -10.24783 -10.24637 -10.22892 -10.22062 -10.21751
 Alpha  occ. eigenvalues --  -10.21704 -10.21218 -10.21083 -10.20930 -10.20923
 Alpha  occ. eigenvalues --  -10.20592 -10.20076 -10.19950 -10.17873  -1.13148
 Alpha  occ. eigenvalues --   -1.12651  -1.10606  -1.08120  -1.06584  -1.06531
 Alpha  occ. eigenvalues --   -1.04049  -1.04017  -1.03012  -1.01867  -1.01597
 Alpha  occ. eigenvalues --   -0.88187  -0.86335  -0.84795  -0.80877  -0.79511
 Alpha  occ. eigenvalues --   -0.77189  -0.76604  -0.75824  -0.74979  -0.72471
 Alpha  occ. eigenvalues --   -0.70434  -0.69063  -0.66943  -0.65986  -0.64771
 Alpha  occ. eigenvalues --   -0.64169  -0.63359  -0.61715  -0.59178  -0.58031
 Alpha  occ. eigenvalues --   -0.57293  -0.56001  -0.55027  -0.54357  -0.53481
 Alpha  occ. eigenvalues --   -0.52654  -0.52026  -0.51406  -0.50608  -0.49352
 Alpha  occ. eigenvalues --   -0.48923  -0.48722  -0.48653  -0.48173  -0.47744
 Alpha  occ. eigenvalues --   -0.47393  -0.46800  -0.46492  -0.45598  -0.44777
 Alpha  occ. eigenvalues --   -0.44416  -0.44176  -0.44057  -0.43803  -0.42902
 Alpha  occ. eigenvalues --   -0.42736  -0.42211  -0.41783  -0.41479  -0.41096
 Alpha  occ. eigenvalues --   -0.40540  -0.39965  -0.39629  -0.39255  -0.39097
 Alpha  occ. eigenvalues --   -0.38755  -0.38420  -0.37912  -0.37567  -0.37417
 Alpha  occ. eigenvalues --   -0.36403  -0.35832  -0.35768  -0.35190  -0.34874
 Alpha  occ. eigenvalues --   -0.34327  -0.34099  -0.33911  -0.33251  -0.31165
 Alpha  occ. eigenvalues --   -0.30801  -0.28983  -0.28546  -0.28535  -0.28373
 Alpha  occ. eigenvalues --   -0.27260  -0.26491  -0.26044  -0.23815  -0.21829
 Alpha virt. eigenvalues --   -0.04864  -0.04681  -0.03014  -0.02378   0.03562
 Alpha virt. eigenvalues --    0.04726   0.05053   0.06174   0.06215   0.07115
 Alpha virt. eigenvalues --    0.07489   0.09140   0.09717   0.10109   0.10842

 Mulliken atomic charges:
              1
     1  C    0.098245
     2  C    0.322362
     3  C   -0.307064
     4  C    0.138769
     5  C   -0.063499
     6  C    0.240378
     7  C    0.054171
     8  C    0.279136
     9  O   -0.497118
    10  C    0.597060
    11  C   -0.371557
    12  C    0.246618
    13  C   -0.304340
    14  C   -0.360994
    15  C   -0.517763
    16  O   -0.654573
    17  O   -0.633323
    18  O   -0.533159
    19  O   -0.551844
    20  C    0.127038
    21  C    0.094074
    22  C    0.105562
    23  C   -0.148363
    24  C    0.058321
    25  C   -0.366079
    26  O   -0.651990
    27  O   -0.635903
    28  C    0.596705
    29  O   -0.469876
    30  O   -0.487955
    31  C   -0.217287
    32  C    0.587932
    33  O   -0.568135
    34  O   -0.466636
    35  H    0.120744
    36  H    0.163830
    37  H    0.186747
    38  H    0.166742
    39  H    0.169340
    40  H    0.190040
    41  H    0.177283
    42  H    0.184932
    43  H    0.165688
    44  H    0.165842
    45  H    0.448478
    46  H    0.414018
    47  H    0.139353
    48  H    0.140787
    49  H    0.142604
    50  H    0.185701
    51  H    0.173701
    52  H    0.177233
    53  H    0.413543
    54  H    0.408784
    55  H    0.161534
    56  H    0.174574
    57  H    0.173986
    58  H    0.415602
 Sum of Mulliken atomic charges =   0.00000

 Dipole moment (field-independent basis, Debye):
    X=             -1.3810    Y=             -6.7558    Z=              0.0088  Tot=              6.8955
 Quadrupole moment (field-independent basis, Debye-Ang):
   XX=           -228.4746   YY=           -187.0503   ZZ=           -197.7524
   XY=              3.6657   XZ=             -8.8425   YZ=              7.2594

 Normal termination of Gaussian 09 at Tue Feb  2 12:33:58 2021.
