 Gaussian 09, Revision B.01,
 Gaussian 09:  EM64L-G09RevB.01 12-Aug-2010

 --------------------------------------
 # opt b3lyp/6-31g(d) geom=connectivity
 --------------------------------------

 -------------------
 Title Card Required
 -------------------
 Symbolic Z-matrix:
 Charge =  0 Multiplicity = 1

 SCF Done:  E(RB3LYP) =  -1718.35876614     A.U. after   15 cycles
 SCF Done:  E(RB3LYP) =  -1718.37041365     A.U. after   13 cycles
 SCF Done:  E(RB3LYP) =  -1718.36724494     A.U. after   13 cycles
 SCF Done:  E(RB3LYP) =  -1718.37226180     A.U. after   13 cycles
 SCF Done:  E(RB3LYP) =  -1718.37146832     A.U. after   13 cycles
 SCF Done:  E(RB3LYP) =  -1718.37343559     A.U. after   12 cycles
 SCF Done:  E(RB3LYP) =  -1718.37399673     A.U. after   12 cycles
 SCF Done:  E(RB3LYP) =  -1718.37314378     A.U. after   13 cycles
 SCF Done:  E(RB3LYP) =  -1718.37429066     A.U. after   12 cycles
 SCF Done:  E(RB3LYP) =  -1718.37428435     A.U. after   11 cycles
 SCF Done:  E(RB3LYP) =  -1718.37443914     A.U. after   12 cycles
 SCF Done:  E(RB3LYP) =  -1718.37435886     A.U. after   12 cycles
 SCF Done:  E(RB3LYP) =  -1718.37441281     A.U. after   12 cycles
 SCF Done:  E(RB3LYP) =  -1718.37445820     A.U. after   10 cycles
 SCF Done:  E(RB3LYP) =  -1718.37444652     A.U. after   11 cycles
 SCF Done:  E(RB3LYP) =  -1718.37445198     A.U. after   11 cycles
 SCF Done:  E(RB3LYP) =  -1718.37447573     A.U. after   10 cycles
 SCF Done:  E(RB3LYP) =  -1718.37447718     A.U. after    9 cycles
 SCF Done:  E(RB3LYP) =  -1718.37447756     A.U. after    7 cycles
 SCF Done:  E(RB3LYP) =  -1718.37447768     A.U. after    7 cycles
 Optimization completed.
    -- Stationary point found.

                         Standard orientation:
 ---------------------------------------------------------------------
 Center     Atomic      Atomic             Coordinates (Angstroms)
 Number     Number       Type             X           Y           Z
 ---------------------------------------------------------------------
      1          6           0       -4.509763    0.580981    1.091006
      2          6           0       -3.462273    0.397703    2.006734
      3          6           0       -2.294242   -0.311044    1.697902
      4          6           0       -2.137949   -0.873582    0.429940
      5          6           0       -3.180778   -0.716124   -0.521067
      6          6           0       -4.358634    0.013067   -0.181275
      7          6           0       -0.954421   -1.618974    0.027339
      8          6           0       -0.913611   -2.156752   -1.211463
      9          8           0       -1.926922   -2.008213   -2.120828
     10          6           0       -3.067453   -1.294542   -1.838565
     11          6           0        0.207224   -1.796378    0.980477
     12          6           0        1.500784   -2.261913    0.290510
     13          6           0        1.188213   -3.416982   -0.677415
     14          6           0        0.221503   -2.955806   -1.774510
     15          6           0       -5.743239    1.354493    1.477261
     16          8           0       -5.351708    0.174869   -1.070332
     17          8           0       -3.643196    0.955559    3.236207
     18          8           0       -3.903488   -1.215572   -2.736777
     19          8           0        2.113419   -1.255984   -0.528040
     20          6           0        2.456793    0.021715    0.046766
     21          6           0        3.884304    0.340426   -0.402105
     22          6           0        4.354331    1.659071    0.209869
     23          6           0        3.339594    2.744682    0.006453
     24          6           0        2.046912    2.503848   -0.260570
     25          6           0        1.483080    1.106514   -0.435268
     26          8           0        4.815090   -0.649841    0.009104
     27          8           0        5.591186    2.075129   -0.353129
     28          6           0        1.144519    3.683855   -0.419830
     29          8           0       -0.114705    3.302809   -0.741235
     30          8           0        1.473106    4.845890   -0.286928
     31          6           0       -1.053747    4.374404   -0.924330
     32          6           0        2.515274   -2.715590    1.359665
     33          8           0        3.648138   -3.212559    0.799771
     34          8           0        2.364796   -2.638123    2.557268
     35          1           0       -1.526731   -0.425958    2.457645
     36          1           0       -0.043735   -2.522650    1.763416
     37          1           0        0.404112   -0.861770    1.514816
     38          1           0        0.743202   -4.238735   -0.102858
     39          1           0        2.115908   -3.786655   -1.120703
     40          1           0        0.752768   -2.347004   -2.516578
     41          1           0       -0.183358   -3.820934   -2.312766
     42          1           0       -6.449065    1.389736    0.646673
     43          1           0       -6.239756    0.897185    2.341221
     44          1           0       -5.489842    2.381115    1.767390
     45          1           0       -5.077740   -0.289888   -1.904212
     46          1           0       -2.867912    0.769297    3.788958
     47          1           0        2.450725   -0.048194    1.143106
     48          1           0        3.891870    0.449278   -1.498413
     49          1           0        4.479946    1.490027    1.295899
     50          1           0        3.686047    3.770276    0.099340
     51          1           0        0.521811    1.020966    0.080438
     52          1           0        1.263863    0.924691   -1.495906
     53          1           0        4.477914   -1.508948   -0.296989
     54          1           0        6.190110    1.315234   -0.260668
     55          1           0       -2.002916    3.893486   -1.161822
     56          1           0       -1.139221    4.968787   -0.010819
     57          1           0       -0.735270    5.026367   -1.742017
     58          1           0        4.253018   -3.415841    1.539049
 ---------------------------------------------------------------------

 The electronic state is 1-A.
 Alpha  occ. eigenvalues --  -19.22846 -19.22280 -19.19963 -19.19530 -19.18231
 Alpha  occ. eigenvalues --  -19.17233 -19.17183 -19.15728 -19.14772 -19.14432
 Alpha  occ. eigenvalues --  -19.13369 -10.34747 -10.32974 -10.31582 -10.28751
 Alpha  occ. eigenvalues --  -10.27394 -10.27118 -10.26928 -10.25909 -10.24923
 Alpha  occ. eigenvalues --  -10.24493 -10.24100 -10.22900 -10.21740 -10.21672
 Alpha  occ. eigenvalues --  -10.21622 -10.21474 -10.21390 -10.20928 -10.20647
 Alpha  occ. eigenvalues --  -10.20382 -10.20080 -10.19980 -10.17945  -1.13693
 Alpha  occ. eigenvalues --   -1.12684  -1.10220  -1.08117  -1.06613  -1.06440
 Alpha  occ. eigenvalues --   -1.04675  -1.03749  -1.03029  -1.01535  -1.01225
 Alpha  occ. eigenvalues --   -0.88153  -0.86367  -0.84659  -0.81069  -0.79192
 Alpha  occ. eigenvalues --   -0.77330  -0.76348  -0.75918  -0.74797  -0.72057
 Alpha  occ. eigenvalues --   -0.70238  -0.69779  -0.66977  -0.65858  -0.64766
 Alpha  occ. eigenvalues --   -0.63964  -0.63016  -0.61678  -0.59302  -0.58610
 Alpha  occ. eigenvalues --   -0.57289  -0.55932  -0.55120  -0.54467  -0.52924
 Alpha  occ. eigenvalues --   -0.52295  -0.51952  -0.51636  -0.51016  -0.49767
 Alpha  occ. eigenvalues --   -0.48772  -0.48388  -0.48324  -0.48289  -0.47950
 Alpha  occ. eigenvalues --   -0.47028  -0.46762  -0.46298  -0.45376  -0.44774
 Alpha  occ. eigenvalues --   -0.44539  -0.44242  -0.43927  -0.43691  -0.43252
 Alpha  occ. eigenvalues --   -0.42932  -0.42176  -0.41922  -0.41302  -0.40734
 Alpha  occ. eigenvalues --   -0.40251  -0.40017  -0.39463  -0.39334  -0.38850
 Alpha  occ. eigenvalues --   -0.38736  -0.38648  -0.38062  -0.37675  -0.37351
 Alpha  occ. eigenvalues --   -0.36011  -0.35968  -0.35596  -0.35247  -0.35004
 Alpha  occ. eigenvalues --   -0.34885  -0.34148  -0.33893  -0.32899  -0.31698
 Alpha  occ. eigenvalues --   -0.30384  -0.29091  -0.28566  -0.28214  -0.27972
 Alpha  occ. eigenvalues --   -0.26975  -0.26514  -0.25718  -0.23826  -0.21843
 Alpha virt. eigenvalues --   -0.04883  -0.04397  -0.03147  -0.02827   0.03450
 Alpha virt. eigenvalues --    0.04307   0.05076   0.06065   0.06889   0.07432
 Alpha virt. eigenvalues --    0.07958   0.09584   0.09834   0.10530   0.11112

 Mulliken atomic charges:
              1
     1  C    0.096832
     2  C    0.322811
     3  C   -0.309681
     4  C    0.137936
     5  C   -0.062444
     6  C    0.238250
     7  C    0.057237
     8  C    0.288156
     9  O   -0.498962
    10  C    0.598139
    11  C   -0.361853
    12  C    0.224608
    13  C   -0.303318
    14  C   -0.341383
    15  C   -0.517827
    16  O   -0.655511
    17  O   -0.633249
    18  O   -0.534773
    19  O   -0.541734
    20  C    0.099971
    21  C    0.105206
    22  C    0.107025
    23  C   -0.148535
    24  C    0.054334
    25  C   -0.350843
    26  O   -0.676481
    27  O   -0.637136
    28  C    0.595934
    29  O   -0.466090
    30  O   -0.489559
    31  C   -0.219224
    32  C    0.601829
    33  O   -0.583046
    34  O   -0.461099
    35  H    0.125520
    36  H    0.179830
    37  H    0.165465
    38  H    0.157491
    39  H    0.173303
    40  H    0.189541
    41  H    0.175530
    42  H    0.184479
    43  H    0.166683
    44  H    0.164297
    45  H    0.448186
    46  H    0.415222
    47  H    0.145041
    48  H    0.136956
    49  H    0.140285
    50  H    0.184269
    51  H    0.171663
    52  H    0.175490
    53  H    0.420116
    54  H    0.407368
    55  H    0.170358
    56  H    0.171479
    57  H    0.173314
    58  H    0.422593
 Sum of Mulliken atomic charges =   0.00000

 Dipole moment (field-independent basis, Debye):
    X=              1.9517    Y=             -4.1001    Z=              2.9763  Tot=              5.4294
 Quadrupole moment (field-independent basis, Debye-Ang):
   XX=           -211.2039   YY=           -196.6075   ZZ=           -195.9879
   XY=            -24.9083   XZ=             -7.2373   YZ=             -0.7718

 Normal termination of Gaussian 09 at Tue Feb  2 12:49:59 2021.
