 Gaussian 09, Revision B.01,
 Gaussian 09:  EM64L-G09RevB.01 12-Aug-2010

 ----------------------------------------
 # opt b3lyp/6-311+g(d) geom=connectivity
 ----------------------------------------

 -------------------
 Title Card Required
 -------------------
 Symbolic Z-matrix:
 Charge =  0 Multiplicity = 1

 SCF Done:  E(RB3LYP) =  -1387.64852577     A.U. after   16 cycles
 SCF Done:  E(RB3LYP) =  -1387.64891582     A.U. after   14 cycles
 SCF Done:  E(RB3LYP) =  -1387.64848791     A.U. after   14 cycles
 SCF Done:  E(RB3LYP) =  -1387.64906902     A.U. after   14 cycles
 SCF Done:  E(RB3LYP) =  -1387.64920292     A.U. after   13 cycles
 SCF Done:  E(RB3LYP) =  -1387.64929906     A.U. after   16 cycles
 SCF Done:  E(RB3LYP) =  -1387.64945542     A.U. after   13 cycles
 SCF Done:  E(RB3LYP) =  -1387.64955111     A.U. after   14 cycles
 SCF Done:  E(RB3LYP) =  -1387.64966328     A.U. after   15 cycles
 SCF Done:  E(RB3LYP) =  -1387.64967227     A.U. after   13 cycles
 SCF Done:  E(RB3LYP) =  -1387.64968766     A.U. after   14 cycles
 SCF Done:  E(RB3LYP) =  -1387.64969798     A.U. after   14 cycles
 SCF Done:  E(RB3LYP) =  -1387.64970603     A.U. after   12 cycles
 SCF Done:  E(RB3LYP) =  -1387.64971208     A.U. after   12 cycles
 SCF Done:  E(RB3LYP) =  -1387.64971350     A.U. after   11 cycles
 SCF Done:  E(RB3LYP) =  -1387.64971436     A.U. after   15 cycles
 SCF Done:  E(RB3LYP) =  -1387.64971463     A.U. after   10 cycles
 Optimization completed.
    -- Stationary point found.

                         Standard orientation:
 ---------------------------------------------------------------------
 Center     Atomic      Atomic             Coordinates (Angstroms)
 Number     Number       Type             X           Y           Z
 ---------------------------------------------------------------------
      1          6           0        2.143515    0.385971    2.763107
      2          6           0        2.790062    1.162489    1.890246
      3          6           0        2.239641    1.350442    0.497054
      4          6           0        1.392736    0.167776   -0.077612
      5          6           0        0.832591   -0.864058    0.959257
      6          6           0        0.863108   -0.324375    2.420275
      7          6           0        0.303965    0.862509   -0.948351
      8          6           0       -1.056549    0.906682   -0.269303
      9          6           0       -1.581315   -0.140140    0.415247
     10          6           0       -0.659092   -1.250398    0.715233
     11          6           0       -3.009999   -0.119719    0.905622
     12          8           0       -3.441220    0.881696    1.442354
     13          6           0       -3.873570   -1.355349    0.672758
     14          6           0       -4.091100   -1.534233   -0.852062
     15          6           0       -5.181035   -1.273122    1.462579
     16          8           0       -1.021477   -2.393823    0.940545
     17          6           0        0.625602    2.368444   -1.016233
     18          6           0       -0.761335    3.019065   -1.206513
     19          8           0       -1.670178    2.058131   -0.520296
     20          6           0        1.347364    2.605651    0.322686
     21          8           0        0.138206    0.241237   -2.210356
     22          6           0        1.750393   -2.102252    0.781935
     23          6           0        2.820304   -1.679156   -0.223556
     24          8           0        2.195981   -0.610089   -0.976615
     25          6           0        3.374515   -2.701709   -1.189043
     26          6           0        4.265889   -2.145952   -2.270740
     27          6           0        3.151516   -4.009524   -1.053133
     28          6           0       -1.181471    3.084730   -2.674253
     29          6           0       -0.969578    4.360717   -0.516133
     30          1           0        1.283532    2.585817   -1.860292
     31          1           0        3.078072    1.453521   -0.202427
     32          6           0        4.053809    1.905741    2.229357
     33          1           0        2.526832    0.272422    3.774775
     34          1           0        0.014719    0.352180    2.581837
     35          1           0        0.695275   -1.167774    3.095009
     36          1           0       -3.284308   -2.213923    1.011383
     37          1           0       -4.685368   -0.691788   -1.227472
     38          1           0       -3.122978   -1.477340   -1.359296
     39          1           0       -5.744317   -2.204962    1.376797
     40          1           0       -5.813498   -0.455954    1.106544
     41          1           0       -4.990931   -1.094634    2.523195
     42          1           0        0.632050    2.663234    1.148574
     43          1           0        1.926745    3.531134    0.336472
     44          1           0        0.868107   -0.394689   -2.301371
     45          1           0        1.151022   -2.931099    0.408234
     46          1           0        2.195503   -2.419575    1.726049
     47          1           0        3.673158   -1.234889    0.312160
     48          1           0        3.721973   -1.452576   -2.917817
     49          1           0        5.100348   -1.579772   -1.840461
     50          1           0        4.680821   -2.941807   -2.891880
     51          1           0        3.605488   -4.727460   -1.729182
     52          1           0        2.524437   -4.420902   -0.271096
     53          1           0       -0.582434    3.832485   -3.202063
     54          1           0       -1.046658    2.123675   -3.170003
     55          1           0       -2.231410    3.376704   -2.750214
     56          1           0       -1.997503    4.700656   -0.657373
     57          1           0       -0.780503    4.304589    0.556055
     58          1           0       -0.301998    5.111573   -0.947929
     59          1           0        4.878762    1.607766    1.571217
     60          1           0        3.930702    2.987499    2.101196
     61          1           0        4.363431    1.726542    3.261131
     62          6           0       -4.767170   -2.854307   -1.231216
     63          1           0       -4.198480   -3.710611   -0.855624
     64          1           0       -4.834544   -2.954009   -2.318576
     65          1           0       -5.783312   -2.928784   -0.835849
 ---------------------------------------------------------------------

 The electronic state is 1-A.
 Alpha  occ. eigenvalues --  -19.17570 -19.15066 -19.13459 -19.11119 -19.10307
 Alpha  occ. eigenvalues --  -10.26570 -10.26329 -10.25770 -10.25695 -10.25581
 Alpha  occ. eigenvalues --  -10.25412 -10.24034 -10.20913 -10.19780 -10.19735
 Alpha  occ. eigenvalues --  -10.19415 -10.19243 -10.19059 -10.18743 -10.18154
 Alpha  occ. eigenvalues --  -10.17914 -10.17795 -10.17575 -10.17561 -10.17270
 Alpha  occ. eigenvalues --  -10.17100 -10.16878 -10.16506 -10.16114 -10.14963
 Alpha  occ. eigenvalues --  -10.14320  -1.10276  -1.07544  -1.04727  -1.03707
 Alpha  occ. eigenvalues --   -1.03607  -0.88072  -0.84705  -0.83183  -0.82395
 Alpha  occ. eigenvalues --   -0.81043  -0.80128  -0.77691  -0.74999  -0.74031
 Alpha  occ. eigenvalues --   -0.73064  -0.71926  -0.70806  -0.70012  -0.69146
 Alpha  occ. eigenvalues --   -0.66476  -0.64889  -0.64799  -0.62387  -0.61662
 Alpha  occ. eigenvalues --   -0.60120  -0.58955  -0.57865  -0.55827  -0.54614
 Alpha  occ. eigenvalues --   -0.53800  -0.52809  -0.52146  -0.51050  -0.50519
 Alpha  occ. eigenvalues --   -0.49173  -0.48348  -0.47910  -0.47533  -0.46835
 Alpha  occ. eigenvalues --   -0.46264  -0.45412  -0.45119  -0.45014  -0.44336
 Alpha  occ. eigenvalues --   -0.43707  -0.43287  -0.43105  -0.42618  -0.42117
 Alpha  occ. eigenvalues --   -0.41976  -0.41667  -0.41222  -0.40835  -0.40740
 Alpha  occ. eigenvalues --   -0.40341  -0.39824  -0.39345  -0.39067  -0.38559
 Alpha  occ. eigenvalues --   -0.38376  -0.38186  -0.38031  -0.37893  -0.37263
 Alpha  occ. eigenvalues --   -0.36716  -0.36226  -0.35953  -0.35472  -0.35144
 Alpha  occ. eigenvalues --   -0.34781  -0.34715  -0.34206  -0.33962  -0.33505
 Alpha  occ. eigenvalues --   -0.32476  -0.32306  -0.31639  -0.29412  -0.28710
 Alpha  occ. eigenvalues --   -0.26917  -0.25724  -0.25437  -0.24584  -0.23730
 Alpha virt. eigenvalues --   -0.05807  -0.02204  -0.01724  -0.01085  -0.00674
 Alpha virt. eigenvalues --    0.00277   0.00426   0.00593   0.01758   0.01813
 Alpha virt. eigenvalues --    0.02049   0.02240   0.02725   0.03287   0.03517

 Mulliken atomic charges:
              1
     1  C   -0.645872
     2  C    0.988512
     3  C    0.107555
     4  C    0.018401
     5  C    1.235672
     6  C   -1.261388
     7  C   -0.631823
     8  C    0.468103
     9  C    1.097486
    10  C   -1.212771
    11  C   -1.385401
    12  O   -0.166857
    13  C    0.637929
    14  C   -0.155995
    15  C   -1.089603
    16  O   -0.169306
    17  C   -0.060287
    18  C    0.774726
    19  O    0.223681
    20  C   -1.916401
    21  O   -0.151956
    22  C   -0.379640
    23  C   -0.188536
    24  O    0.076348
    25  C    1.046892
    26  C   -1.033952
    27  C   -1.260670
    28  C   -0.811343
    29  C   -0.633854
    30  H    0.233820
    31  H    0.268708
    32  C   -1.241244
    33  H    0.208191
    34  H    0.270228
    35  H    0.262825
    36  H    0.274185
    37  H    0.243727
    38  H    0.248802
    39  H    0.241635
    40  H    0.266087
    41  H    0.254555
    42  H    0.302434
    43  H    0.265132
    44  H    0.328844
    45  H    0.258205
    46  H    0.261302
    47  H    0.262298
    48  H    0.270098
    49  H    0.261815
    50  H    0.257708
    51  H    0.230157
    52  H    0.235617
    53  H    0.248037
    54  H    0.308257
    55  H    0.264964
    56  H    0.274679
    57  H    0.274002
    58  H    0.261085
    59  H    0.258783
    60  H    0.248526
    61  H    0.250130
    62  C   -1.104901
    63  H    0.246645
    64  H    0.241055
    65  H    0.243958
 Sum of Mulliken atomic charges =   0.00000

 Dipole moment (field-independent basis, Debye):
    X=              5.5733    Y=              2.3095    Z=             -0.9708  Tot=              6.1105
 Quadrupole moment (field-independent basis, Debye-Ang):
   XX=           -190.6684   YY=           -181.5610   ZZ=           -188.2382
   XY=              3.9070   XZ=              7.0123   YZ=             -3.3790

 Normal termination of Gaussian 09 at Tue Apr 13 21:20:59 2021.
