 Gaussian 09, Revision B.01,
 Gaussian 09:  EM64L-G09RevB.01 12-Aug-2010

 ----------------------------------------
 # opt b3lyp/6-311+g(d) geom=connectivity
 ----------------------------------------

 -------------------
 Title Card Required
 -------------------
 Symbolic Z-matrix:
 Charge =  0 Multiplicity = 1

 SCF Done:  E(RB3LYP) =  -1387.64805292     A.U. after   16 cycles
 SCF Done:  E(RB3LYP) =  -1387.64867822     A.U. after   14 cycles
 SCF Done:  E(RB3LYP) =  -1387.64878345     A.U. after   14 cycles
 SCF Done:  E(RB3LYP) =  -1387.64860744     A.U. after   14 cycles
 SCF Done:  E(RB3LYP) =  -1387.64896778     A.U. after   14 cycles
 SCF Done:  E(RB3LYP) =  -1387.64899739     A.U. after   17 cycles
 SCF Done:  E(RB3LYP) =  -1387.64908093     A.U. after   15 cycles
 SCF Done:  E(RB3LYP) =  -1387.64927233     A.U. after   14 cycles
 SCF Done:  E(RB3LYP) =  -1387.64926988     A.U. after   13 cycles
 SCF Done:  E(RB3LYP) =  -1387.64930026     A.U. after   12 cycles
 SCF Done:  E(RB3LYP) =  -1387.64930401     A.U. after   12 cycles
 SCF Done:  E(RB3LYP) =  -1387.64930777     A.U. after   11 cycles
 SCF Done:  E(RB3LYP) =  -1387.64930868     A.U. after   12 cycles
 SCF Done:  E(RB3LYP) =  -1387.64930896     A.U. after   11 cycles
 SCF Done:  E(RB3LYP) =  -1387.64930922     A.U. after   10 cycles
 Optimization completed.
    -- Stationary point found.

                         Standard orientation:
 ---------------------------------------------------------------------
 Center     Atomic      Atomic             Coordinates (Angstroms)
 Number     Number       Type             X           Y           Z
 ---------------------------------------------------------------------
      1          6           0        0.292947   -1.489891    2.838093
      2          6           0        0.580061   -0.197640    3.010677
      3          6           0        1.289794    0.601018    1.940207
      4          6           0        1.410085   -0.078370    0.540088
      5          6           0        0.712393   -1.446326    0.310975
      6          6           0        0.653146   -2.280416    1.613509
      7          6           0        0.940803    1.014926   -0.457797
      8          6           0       -0.551660    0.987195   -0.727621
      9          6           0       -1.318206   -0.133662   -0.717723
     10          6           0       -0.711534   -1.400091   -0.304221
     11          6           0       -2.775513   -0.083368   -1.103193
     12          8           0       -3.128128    0.559639   -2.070921
     13          6           0       -3.803962   -0.787855   -0.214171
     14          6           0       -4.628344   -1.784174   -1.056098
     15          6           0       -4.670636    0.294425    0.458045
     16          8           0       -1.311837   -2.459329   -0.428366
     17          6           0        1.040743    2.382006    0.247485
     18          6           0        0.006907    3.239188   -0.516976
     19          8           0       -1.013566    2.220698   -0.908094
     20          6           0        0.680231    2.010157    1.696675
     21          8           0        1.595833    0.926668   -1.709314
     22          6           0        1.664032   -2.126816   -0.707637
     23          6           0        3.039448   -1.658834   -0.250898
     24          8           0        2.814585   -0.312030    0.265501
     25          6           0        4.173989   -1.614716   -1.251556
     26          6           0        5.472944   -1.071462   -0.711287
     27          6           0        4.053604   -2.067562   -2.500609
     28          6           0        0.564195    3.858875   -1.797089
     29          6           0       -0.735245    4.284848    0.306592
     30          1           0        2.046861    2.800707    0.173286
     31          1           0        2.328128    0.743928    2.265463
     32          6           0        0.284732    0.518340    4.303875
     33          1           0       -0.186284   -2.037181    3.647394
     34          1           0        1.624771   -2.763101    1.782148
     35          1           0       -0.054259   -3.096293    1.453602
     36          1           0       -3.277382   -1.348515    0.561582
     37          1           0       -5.157231   -1.229203   -1.837570
     38          1           0       -3.930894   -2.455019   -1.566558
     39          1           0       -5.379748   -0.153635    1.157746
     40          1           0       -5.231939    0.861589   -0.288332
     41          1           0       -4.057934    1.002861    1.024314
     42          1           0        1.038057    2.743928    2.421107
     43          1           0       -0.405392    1.955696    1.811190
     44          1           0        2.503712    0.639654   -1.517944
     45          1           0        1.449096   -1.772895   -1.717037
     46          1           0        1.554598   -3.212197   -0.693538
     47          1           0        3.377175   -2.267310    0.599849
     48          1           0        5.350625   -0.051573   -0.336354
     49          1           0        5.825353   -1.673522    0.134414
     50          1           0        6.254314   -1.069040   -1.473454
     51          1           0        4.896802   -2.055007   -3.184495
     52          1           0        3.128948   -2.475306   -2.891991
     53          1           0       -0.247409    4.297451   -2.381833
     54          1           0        1.272062    4.654811   -1.547658
     55          1           0        1.075300    3.116621   -2.407508
     56          1           0       -0.033890    5.043013    0.665895
     57          1           0       -1.485130    4.784625   -0.309984
     58          1           0       -1.243613    3.852088    1.168378
     59          1           0       -0.158038   -0.157826    5.037861
     60          1           0        1.200122    0.934785    4.742092
     61          1           0       -0.404586    1.357927    4.166909
     62          6           0       -5.615956   -2.621879   -0.240658
     63          1           0       -6.109080   -3.361954   -0.877632
     64          1           0       -5.109268   -3.168322    0.561664
     65          1           0       -6.402922   -2.014441    0.214407
 ---------------------------------------------------------------------

 The electronic state is 1-A.
 Alpha  occ. eigenvalues --  -19.17812 -19.14734 -19.13983 -19.10706 -19.10260
 Alpha  occ. eigenvalues --  -10.26871 -10.26451 -10.25944 -10.25468 -10.25412
 Alpha  occ. eigenvalues --  -10.25338 -10.24321 -10.20845 -10.19901 -10.19829
 Alpha  occ. eigenvalues --  -10.19731 -10.19051 -10.18760 -10.18516 -10.18426
 Alpha  occ. eigenvalues --  -10.18035 -10.17833 -10.17650 -10.17557 -10.17544
 Alpha  occ. eigenvalues --  -10.17377 -10.16780 -10.16774 -10.15396 -10.15211
 Alpha  occ. eigenvalues --  -10.14703  -1.10518  -1.06996  -1.04495  -1.03778
 Alpha  occ. eigenvalues --   -1.03602  -0.87884  -0.84719  -0.83422  -0.82524
 Alpha  occ. eigenvalues --   -0.81323  -0.79929  -0.77767  -0.75294  -0.74292
 Alpha  occ. eigenvalues --   -0.72844  -0.71945  -0.70775  -0.70325  -0.68926
 Alpha  occ. eigenvalues --   -0.66460  -0.65103  -0.64455  -0.62784  -0.61697
 Alpha  occ. eigenvalues --   -0.60558  -0.59015  -0.58036  -0.55716  -0.54632
 Alpha  occ. eigenvalues --   -0.53767  -0.53133  -0.51861  -0.51439  -0.50336
 Alpha  occ. eigenvalues --   -0.49363  -0.48683  -0.47721  -0.47394  -0.46832
 Alpha  occ. eigenvalues --   -0.46320  -0.45552  -0.45401  -0.44527  -0.44358
 Alpha  occ. eigenvalues --   -0.43921  -0.43333  -0.42828  -0.42614  -0.42345
 Alpha  occ. eigenvalues --   -0.41702  -0.41567  -0.41413  -0.40761  -0.40514
 Alpha  occ. eigenvalues --   -0.40101  -0.39748  -0.39342  -0.39151  -0.38909
 Alpha  occ. eigenvalues --   -0.38602  -0.38372  -0.38198  -0.38023  -0.37905
 Alpha  occ. eigenvalues --   -0.37448  -0.36406  -0.35961  -0.35576  -0.35387
 Alpha  occ. eigenvalues --   -0.34812  -0.34621  -0.34241  -0.33856  -0.33229
 Alpha  occ. eigenvalues --   -0.32424  -0.31620  -0.31505  -0.29353  -0.27843
 Alpha  occ. eigenvalues --   -0.27443  -0.26156  -0.25453  -0.24686  -0.23848
 Alpha virt. eigenvalues --   -0.06260  -0.02906  -0.01920  -0.01394  -0.00293
 Alpha virt. eigenvalues --   -0.00071   0.00214   0.01182   0.01474   0.01807
 Alpha virt. eigenvalues --    0.02075   0.02292   0.03041   0.03113   0.03540

 Mulliken atomic charges:
              1
     1  C   -0.851778
     2  C    0.865820
     3  C   -0.144820
     4  C   -0.524506
     5  C    1.210050
     6  C   -0.823755
     7  C   -1.232078
     8  C    0.409950
     9  C    0.855831
    10  C   -0.940028
    11  C   -0.346315
    12  O   -0.180396
    13  C    0.684694
    14  C   -0.307906
    15  C   -1.067799
    16  O   -0.169693
    17  C   -0.203122
    18  C    0.697422
    19  O    0.158331
    20  C   -1.229338
    21  O   -0.006357
    22  C   -0.444654
    23  C   -0.578663
    24  O    0.051024
    25  C    0.970876
    26  C   -1.013851
    27  C   -1.026332
    28  C   -0.719789
    29  C   -0.776906
    30  H    0.235664
    31  H    0.273667
    32  C   -1.055842
    33  H    0.202913
    34  H    0.241365
    35  H    0.275752
    36  H    0.230751
    37  H    0.251251
    38  H    0.254374
    39  H    0.248383
    40  H    0.278427
    41  H    0.239591
    42  H    0.272370
    43  H    0.277352
    44  H    0.290510
    45  H    0.270508
    46  H    0.286227
    47  H    0.235927
    48  H    0.268539
    49  H    0.263647
    50  H    0.256091
    51  H    0.230915
    52  H    0.239943
    53  H    0.266809
    54  H    0.247580
    55  H    0.311796
    56  H    0.263925
    57  H    0.272546
    58  H    0.257758
    59  H    0.256667
    60  H    0.259413
    61  H    0.257696
    62  C   -0.997224
    63  H    0.245037
    64  H    0.237460
    65  H    0.236300
 Sum of Mulliken atomic charges =   0.00000

 Dipole moment (field-independent basis, Debye):
    X=              4.9435    Y=              2.0933    Z=              4.2750  Tot=              6.8626
 Quadrupole moment (field-independent basis, Debye-Ang):
   XX=           -188.5617   YY=           -180.4199   ZZ=           -192.1153
   XY=             -1.2627   XZ=            -10.2473   YZ=              3.9841

 Normal termination of Gaussian 09 at Tue Apr 13 20:32:37 2021.
